 8
point: 07; energy: -153.3482530760
C    0.966263  -1.196369  -0.000000
C    0.000000   0.823434   0.000000
H    1.999211  -0.898443   0.000000
H    0.571069  -1.596135   0.914249
H    0.571069  -1.596135  -0.914249
O   -1.237846   0.514013  -0.000000
H    0.481918   1.108109  -0.919295
H    0.481918   1.108109   0.919295
