
    -----------------------------------------------------------------------
          Psi4: An Open-Source Ab Initio Electronic Structure Package
                               Psi4 1.3 release

                         Git: Rev {HEAD} 20e5c7e 


    R. M. Parrish, L. A. Burns, D. G. A. Smith, A. C. Simmonett,
    A. E. DePrince III, E. G. Hohenstein, U. Bozkaya, A. Yu. Sokolov,
    R. Di Remigio, R. M. Richard, J. F. Gonthier, A. M. James,
    H. R. McAlexander, A. Kumar, M. Saitow, X. Wang, B. P. Pritchard,
    P. Verma, H. F. Schaefer III, K. Patkowski, R. A. King, E. F. Valeev,
    F. A. Evangelista, J. M. Turney, T. D. Crawford, and C. D. Sherrill,
    J. Chem. Theory Comput. 13(7) pp 3185--3197 (2017).
    (doi: 10.1021/acs.jctc.7b00174)


                         Additional Contributions by
    P. Kraus, H. Kruse, M. H. Lechner, M. C. Schieber, R. A. Shaw,
    A. Alenaizan, R. Galvelis, Z. L. Glick, S. Lehtola, and J. P. Misiewicz

    -----------------------------------------------------------------------


    Psi4 started on: Tuesday, 05 March 2019 12:35PM

    Process ID: 32286
    Host:       gunnar
    PSIDATADIR: /home/avcopan/miniconda/envs/pacc-env-mini/share/psi4
    Memory:     500.0 MiB
    Threads:    1
    
  ==> Input File <==

--------------------------------------------------------------------------
#! 
memory 1 GB


molecule {

0 1
O 
H  1    R1
H  1    R2 2    A2

R1    =    0.968998
R2    =    0.969003
A2    =  103.978000

}

set basis sto-3g
set scf_type pk
set reference rhf
set mp2_type conv





_, wfn = optimize('scf', return_wfn=True, )


--------------------------------------------------------------------------

  Memory set to 953.674 MiB by Python driver.
gradient() will perform analytic gradient computation.

*** tstart() called on gunnar
*** at Tue Mar  5 12:35:45 2019

   => Loading Basis Set <=

    Name: STO-3G
    Role: ORBITAL
    Keyword: BASIS
    atoms 1   entry O          line    81 file /home/avcopan/miniconda/envs/pacc-env-mini/share/psi4/basis/sto-3g.gbs 
    atoms 2-3 entry H          line    19 file /home/avcopan/miniconda/envs/pacc-env-mini/share/psi4/basis/sto-3g.gbs 


         ---------------------------------------------------------
                                   SCF
               by Justin Turney, Rob Parrish, Andy Simmonett
                          and Daniel G. A. Smith
                              RHF Reference
                        1 Threads,    953 MiB Core
         ---------------------------------------------------------

  ==> Geometry <==

    Molecular point group: cs
    Full point group: Cs

    Geometry (in Angstrom), charge = 0, multiplicity = 1:

       Center              X                  Y                   Z               Mass       
    ------------   -----------------  -----------------  -----------------  -----------------
         O            0.052617304366     0.041125134267     0.000000000000    15.994914619570
         H            0.052617304366    -0.927872865733     0.000000000000     1.007825032230
         H           -0.887692107957     0.275187141237     0.000000000000     1.007825032230

  Running in cs symmetry.

  Rotational constants: A =     26.44730  B =     14.34826  C =      9.30182 [cm^-1]
  Rotational constants: A = 792870.22518  B = 430150.15397  C = 278861.46074 [MHz]
  Nuclear repulsion =    9.084261058726666

  Charge       = 0
  Multiplicity = 1
  Electrons    = 10
  Nalpha       = 5
  Nbeta        = 5

  ==> Algorithm <==

  SCF Algorithm Type is PK.
  DIIS enabled.
  MOM disabled.
  Fractional occupation disabled.
  Guess Type is SAD.
  Energy threshold   = 1.00e-08
  Density threshold  = 1.00e-08
  Integral threshold = 0.00e+00

  ==> Primary Basis <==

  Basis Set: STO-3G
    Blend: STO-3G
    Number of shells: 5
    Number of basis function: 7
    Number of Cartesian functions: 7
    Spherical Harmonics?: true
    Max angular momentum: 1

  ==> Pre-Iterations <==

   -------------------------------------------------------
    Irrep   Nso     Nmo     Nalpha   Nbeta   Ndocc  Nsocc
   -------------------------------------------------------
     A'         6       6       0       0       0       0
     A"         1       1       0       0       0       0
   -------------------------------------------------------
    Total       7       7       5       5       5       0
   -------------------------------------------------------

  ==> Integral Setup <==

  Using in-core PK algorithm.
   Calculation information:
      Number of atoms:                   3
      Number of AO shells:               5
      Number of primitives:             15
      Number of atomic orbitals:         7
      Number of basis functions:         7

      Integral cutoff                 1.00e-12
      Number of threads:                 1

  Performing in-core PK
  Using 812 doubles for integral storage.
  We computed 120 shell quartets total.
  Whereas there are 120 unique shell quartets.

  ==> DiskJK: Disk-Based J/K Matrices <==

    J tasked:                  Yes
    K tasked:                  Yes
    wK tasked:                  No
    Memory [MiB]:              715
    Schwarz Cutoff:          1E-12

    OpenMP threads:              1

  Minimum eigenvalue in the overlap matrix is 3.4992183653E-01.
  Using Symmetric Orthogonalization.

  SCF Guess: Superposition of Atomic Densities via on-the-fly atomic UHF.

  ==> Iterations <==

                        Total Energy        Delta E     RMS |[F,P]|

   @RHF iter SAD:   -74.19382348668543   -7.41938e+01   0.00000e+00 
   @RHF iter   1:   -74.91349203214305   -7.19669e-01   4.12783e-02 DIIS
   @RHF iter   2:   -74.96348718314999   -4.99952e-02   6.33580e-03 DIIS
   @RHF iter   3:   -74.96437768048735   -8.90497e-04   1.47586e-03 DIIS
   @RHF iter   4:   -74.96444802463222   -7.03441e-05   1.40959e-04 DIIS
   @RHF iter   5:   -74.96444914295380   -1.11832e-06   1.07825e-05 DIIS
   @RHF iter   6:   -74.96444914815024   -5.19644e-09   5.13725e-07 DIIS
   @RHF iter   7:   -74.96444914816172   -1.14824e-11   1.71021e-09 DIIS
  Energy and wave function converged.


  ==> Post-Iterations <==

    Orbital Energies [Eh]
    ---------------------

    Doubly Occupied:                                                      

       1Ap   -20.243919     2Ap    -1.263082     3Ap    -0.610865  
       4Ap    -0.452873     1App   -0.390909  

    Virtual:                                                              

       5Ap     0.594961     6Ap     0.726920  

    Final Occupation by Irrep:
             Ap   App 
    DOCC [     4,    1 ]

  @RHF Final Energy:   -74.96444914816172

   => Energetics <=

    Nuclear Repulsion Energy =              9.0842610587266659
    One-Electron Energy =                -122.1741254469654478
    Two-Electron Energy =                  38.1254152400770607
    Total Energy =                        -74.9644491481617194

Computation Completed


Properties will be evaluated at   0.000000,   0.000000,   0.000000 [a0]

Properties computed using the SCF density matrix

  Nuclear Dipole Moment: [e a0]
     X:    -0.7826      Y:    -0.6117      Z:     0.0000

  Electronic Dipole Moment: [e a0]
     X:     0.2514      Y:     0.1965      Z:     0.0000

  Dipole Moment: [e a0]
     X:    -0.5312      Y:    -0.4152      Z:     0.0000     Total:     0.6742

  Dipole Moment: [D]
     X:    -1.3502      Y:    -1.0553      Z:     0.0000     Total:     1.7137


*** tstop() called on gunnar at Tue Mar  5 12:35:46 2019
Module time:
	user time   =       0.43 seconds =       0.01 minutes
	system time =       0.00 seconds =       0.00 minutes
	total time  =          1 seconds =       0.02 minutes
Total time:
	user time   =       0.43 seconds =       0.01 minutes
	system time =       0.00 seconds =       0.00 minutes
	total time  =          1 seconds =       0.02 minutes

*** tstart() called on gunnar
*** at Tue Mar  5 12:35:46 2019


         ------------------------------------------------------------
                                   SCF GRAD                          
                          Rob Parrish, Justin Turney,                
                       Andy Simmonett, and Alex Sokolov              
         ------------------------------------------------------------

  ==> Geometry <==

    Molecular point group: cs
    Full point group: Cs

    Geometry (in Angstrom), charge = 0, multiplicity = 1:

       Center              X                  Y                   Z               Mass       
    ------------   -----------------  -----------------  -----------------  -----------------
         O            0.052617304366     0.041125134267     0.000000000000    15.994914619570
         H            0.052617304366    -0.927872865733     0.000000000000     1.007825032230
         H           -0.887692107957     0.275187141237     0.000000000000     1.007825032230

  Nuclear repulsion =    9.084261058726666

  ==> Basis Set <==

  Basis Set: STO-3G
    Blend: STO-3G
    Number of shells: 5
    Number of basis function: 7
    Number of Cartesian functions: 7
    Spherical Harmonics?: true
    Max angular momentum: 1

  ==> DirectJKGrad: Integral-Direct SCF Gradients <==

    Gradient:                    1
    J tasked:                  Yes
    K tasked:                  Yes
    wK tasked:                  No
    Integrals threads:           1
    Schwarz Cutoff:          0E+00


  -Total Gradient:
     Atom            X                  Y                   Z
    ------   -----------------  -----------------  -----------------
       1       -0.033549546373    -0.026229339773     0.000000000000
       2        0.009277396472     0.022710720862     0.000000000000
       3        0.024272149901     0.003518618912     0.000000000000


*** tstop() called on gunnar at Tue Mar  5 12:35:46 2019
Module time:
	user time   =       0.04 seconds =       0.00 minutes
	system time =       0.01 seconds =       0.00 minutes
	total time  =          0 seconds =       0.00 minutes
Total time:
	user time   =       0.48 seconds =       0.01 minutes
	system time =       0.01 seconds =       0.00 minutes
	total time  =          1 seconds =       0.02 minutes

			-----------------------------------------
			 OPTKING 2.0: for geometry optimizations 
			  - R.A. King,  Bethel University        
			-----------------------------------------

	Internal coordinates to be generated automatically.
	Detected frag 1 with atoms:  1 2 3
	---Fragment 1 Bond Connectivity---
	 1 : 2 3
	 2 : 1
	 3 : 1

	---Fragment 1 Geometry and Gradient---
	 O           0.0994322947        0.0777152406        0.0000000000
	 H           0.0994322947       -1.7534255955        0.0000000000
	 H          -1.6774949678        0.5200283302        0.0000000000
	            -0.0335495464       -0.0262293398        0.0000000000
	             0.0092773965        0.0227107209        0.0000000000
	             0.0242721499        0.0035186189        0.0000000000

	Previous optimization step data not found.  Starting new optimization.

	---Fragment 1 Intrafragment Coordinates---
	 - Coordinate -           - BOHR/RAD -       - ANG/DEG -
	 R(1,2)           =         1.831141	       0.968998
	 R(1,3)           =         1.831150	       0.969003
	 B(2,1,3)         =         1.814758	     103.978000

	Current energy   :       -74.9644491482

	Generating empirical Hessian (Schlegel '84) for each fragment.
	Taking RFO optimization step.
	Going to follow RFO solution 1.
	Using RFO vector 1.
	Norm of target step-size    0.11965
	Projected energy change by RFO approximation:        -0.0027498488

	Back-transformation to cartesian coordinates...
	Successfully converged to displaced geometry.

	--- Internal Coordinate Step in ANG or DEG, aJ/ANG or AJ/DEG ---
	 ---------------------------------------------------------------------------
	   Coordinate                Previous        Force       Change         New 
	   ----------                --------       ------       ------       ------
	    1 R(1,2)          =      0.968998     0.187107     0.022276     0.991274
	    2 R(1,3)          =      0.969003     0.187048     0.022270     0.991273
	    3 B(2,1,3)        =    103.978000    -0.001293    -5.946876    98.031124
	 ---------------------------------------------------------------------------
	Successfully symmetrized geometry.

  ==> Convergence Check <==

  Measures of convergence in internal coordinates in au.
  Criteria marked as inactive (o), active & met (*), and active & unmet ( ).
  --------------------------------------------------------------------------------------------- ~
   Step     Total Energy     Delta E     MAX Force     RMS Force      MAX Disp      RMS Disp    ~
  --------------------------------------------------------------------------------------------- ~
    Convergence Criteria    1.00e-06 *    3.00e-04 *             o    1.20e-03 *             o  ~
  --------------------------------------------------------------------------------------------- ~
      1     -74.96444915   -7.50e+01      2.27e-02      2.10e-02 o    1.04e-01      6.91e-02 o  ~
  ---------------------------------------------------------------------------------------------

	Writing optimization data to binary file.
	Structure for next step:
	Cartesian Geometry (in Angstrom)
	    O     0.0806689382   0.0630531427   0.0000000000
	    H     0.0292500126  -0.9268866764   0.0000000000
	    H    -0.8923764469   0.2522729459   0.0000000000
			--------------------------
			 OPTKING Finished Execution 
			--------------------------

    Structure for next step:
    Molecular point group: cs
    Full point group: Cs

    Geometry (in Angstrom), charge = 0, multiplicity = 1:

    O       
    H             1          R1
    H             1          R2      2          A2

    A2        =   98.0311241848
    R1        =    0.9912743107
    R2        =    0.9912726482

gradient() will perform analytic gradient computation.

*** tstart() called on gunnar
*** at Tue Mar  5 12:35:46 2019

   => Loading Basis Set <=

    Name: STO-3G
    Role: ORBITAL
    Keyword: BASIS
    atoms 1   entry O          line    81 file /home/avcopan/miniconda/envs/pacc-env-mini/share/psi4/basis/sto-3g.gbs 
    atoms 2-3 entry H          line    19 file /home/avcopan/miniconda/envs/pacc-env-mini/share/psi4/basis/sto-3g.gbs 


         ---------------------------------------------------------
                                   SCF
               by Justin Turney, Rob Parrish, Andy Simmonett
                          and Daniel G. A. Smith
                              RHF Reference
                        1 Threads,    953 MiB Core
         ---------------------------------------------------------

  ==> Geometry <==

    Molecular point group: cs
    Full point group: Cs

    Geometry (in Angstrom), charge = 0, multiplicity = 1:

       Center              X                  Y                   Z               Mass       
    ------------   -----------------  -----------------  -----------------  -----------------
         O            0.054925053517     0.047719528565     0.000000000000    15.994914619570
         H            0.054925053517    -0.943554782141     0.000000000000     1.007825032230
         H           -0.926625510827     0.186211234725     0.000000000000     1.007825032230

  Running in cs symmetry.

  Rotational constants: A =     22.28053  B =     14.93584  C =      8.94172 [cm^-1]
  Rotational constants: A = 667953.33711  B = 447765.20137  C = 268066.04908 [MHz]
  Nuclear repulsion =    8.894958001895487

  Charge       = 0
  Multiplicity = 1
  Electrons    = 10
  Nalpha       = 5
  Nbeta        = 5

  ==> Algorithm <==

  SCF Algorithm Type is PK.
  DIIS enabled.
  MOM disabled.
  Fractional occupation disabled.
  Guess Type is READ.
  Energy threshold   = 1.00e-08
  Density threshold  = 1.00e-08
  Integral threshold = 0.00e+00

  ==> Primary Basis <==

  Basis Set: STO-3G
    Blend: STO-3G
    Number of shells: 5
    Number of basis function: 7
    Number of Cartesian functions: 7
    Spherical Harmonics?: true
    Max angular momentum: 1

   => Loading Basis Set <=

    Name: STO-3G
    Role: ORBITAL
    Keyword: BASIS
    atoms 1   entry O          line    81 file /home/avcopan/miniconda/envs/pacc-env-mini/share/psi4/basis/sto-3g.gbs 
    atoms 2-3 entry H          line    19 file /home/avcopan/miniconda/envs/pacc-env-mini/share/psi4/basis/sto-3g.gbs 

  Reading orbitals from file 180, no projection.

  ==> Pre-Iterations <==

   -------------------------------------------------------
    Irrep   Nso     Nmo     Nalpha   Nbeta   Ndocc  Nsocc
   -------------------------------------------------------
     A'         6       6       0       0       0       0
     A"         1       1       0       0       0       0
   -------------------------------------------------------
    Total       7       7       5       5       5       0
   -------------------------------------------------------

  ==> Integral Setup <==

  Using in-core PK algorithm.
   Calculation information:
      Number of atoms:                   3
      Number of AO shells:               5
      Number of primitives:             15
      Number of atomic orbitals:         7
      Number of basis functions:         7

      Integral cutoff                 1.00e-12
      Number of threads:                 1

  Performing in-core PK
  Using 812 doubles for integral storage.
  We computed 120 shell quartets total.
  Whereas there are 120 unique shell quartets.

  ==> DiskJK: Disk-Based J/K Matrices <==

    J tasked:                  Yes
    K tasked:                  Yes
    wK tasked:                  No
    Memory [MiB]:              715
    Schwarz Cutoff:          1E-12

    OpenMP threads:              1

  Minimum eigenvalue in the overlap matrix is 3.6451238140E-01.
  Using Symmetric Orthogonalization.

  SCF Guess: Orbitals guess was supplied from a previous computation.

  ==> Iterations <==

                        Total Energy        Delta E     RMS |[F,P]|

   @RHF iter   0:   -74.94108110237705   -7.49411e+01   1.11154e-02 
   @RHF iter   1:   -74.96546551551478   -2.43844e-02   2.19683e-03 DIIS
   @RHF iter   2:   -74.96567860852028   -2.13093e-04   8.70942e-04 DIIS
   @RHF iter   3:   -74.96572060460572   -4.19961e-05   8.04948e-05 DIIS
   @RHF iter   4:   -74.96572090643475   -3.01829e-07   2.55649e-05 DIIS
   @RHF iter   5:   -74.96572094248612   -3.60514e-08   1.35490e-06 DIIS
   @RHF iter   6:   -74.96572094257031   -8.41993e-11   2.89472e-07 DIIS
   @RHF iter   7:   -74.96572094257414   -3.82272e-12   9.93117e-09 DIIS
  Energy and wave function converged.


  ==> Post-Iterations <==

    Orbital Energies [Eh]
    ---------------------

    Doubly Occupied:                                                      

       1Ap   -20.254056     2Ap    -1.258747     3Ap    -0.589387  
       4Ap    -0.464103     1App   -0.393795  

    Virtual:                                                              

       5Ap     0.582871     6Ap     0.685486  

    Final Occupation by Irrep:
             Ap   App 
    DOCC [     4,    1 ]

  @RHF Final Energy:   -74.96572094257414

   => Energetics <=

    Nuclear Repulsion Energy =              8.8949580018954872
    One-Electron Energy =                -121.8011810906479440
    Two-Electron Energy =                  37.9405021461783249
    Total Energy =                        -74.9657209425741371

Computation Completed


Properties will be evaluated at   0.000000,   0.000000,   0.000000 [a0]

Properties computed using the SCF density matrix

  Nuclear Dipole Moment: [e a0]
     X:    -0.8169      Y:    -0.7098      Z:     0.0000

  Electronic Dipole Moment: [e a0]
     X:     0.3067      Y:     0.2665      Z:     0.0000

  Dipole Moment: [e a0]
     X:    -0.5102      Y:    -0.4433      Z:     0.0000     Total:     0.6759

  Dipole Moment: [D]
     X:    -1.2968      Y:    -1.1267      Z:     0.0000     Total:     1.7179


*** tstop() called on gunnar at Tue Mar  5 12:35:46 2019
Module time:
	user time   =       0.19 seconds =       0.00 minutes
	system time =       0.00 seconds =       0.00 minutes
	total time  =          0 seconds =       0.00 minutes
Total time:
	user time   =       0.68 seconds =       0.01 minutes
	system time =       0.01 seconds =       0.00 minutes
	total time  =          1 seconds =       0.02 minutes

*** tstart() called on gunnar
*** at Tue Mar  5 12:35:46 2019


         ------------------------------------------------------------
                                   SCF GRAD                          
                          Rob Parrish, Justin Turney,                
                       Andy Simmonett, and Alex Sokolov              
         ------------------------------------------------------------

  ==> Geometry <==

    Molecular point group: cs
    Full point group: Cs

    Geometry (in Angstrom), charge = 0, multiplicity = 1:

       Center              X                  Y                   Z               Mass       
    ------------   -----------------  -----------------  -----------------  -----------------
         O            0.054925053517     0.047719528565     0.000000000000    15.994914619570
         H            0.054925053517    -0.943554782141     0.000000000000     1.007825032230
         H           -0.926625510827     0.186211234725     0.000000000000     1.007825032230

  Nuclear repulsion =    8.894958001895487

  ==> Basis Set <==

  Basis Set: STO-3G
    Blend: STO-3G
    Number of shells: 5
    Number of basis function: 7
    Number of Cartesian functions: 7
    Spherical Harmonics?: true
    Max angular momentum: 1

  ==> DirectJKGrad: Integral-Direct SCF Gradients <==

    Gradient:                    1
    J tasked:                  Yes
    K tasked:                  Yes
    wK tasked:                  No
    Integrals threads:           1
    Schwarz Cutoff:          0E+00


  -Total Gradient:
     Atom            X                  Y                   Z
    ------   -----------------  -----------------  -----------------
       1        0.007064434449     0.006139791631     0.000000000000
       2       -0.005457994916    -0.000854388497     0.000000000000
       3       -0.001606439534    -0.005285403134     0.000000000000


*** tstop() called on gunnar at Tue Mar  5 12:35:46 2019
Module time:
	user time   =       0.05 seconds =       0.00 minutes
	system time =       0.00 seconds =       0.00 minutes
	total time  =          0 seconds =       0.00 minutes
Total time:
	user time   =       0.73 seconds =       0.01 minutes
	system time =       0.01 seconds =       0.00 minutes
	total time  =          1 seconds =       0.02 minutes

			-----------------------------------------
			 OPTKING 2.0: for geometry optimizations 
			  - R.A. King,  Bethel University        
			-----------------------------------------

	Previous internal coordinate definitions found.
	---Fragment 1 Geometry and Gradient---
	 O           0.1037933086        0.0901768398        0.0000000000
	 H           0.1037933086       -1.7830601226        0.0000000000
	 H          -1.7510684363        0.3518882351        0.0000000000
	             0.0070644344        0.0061397916        0.0000000000
	            -0.0054579949       -0.0008543885        0.0000000000
	            -0.0016064395       -0.0052854031        0.0000000000

	---Fragment 1 Intrafragment Coordinates---
	 - Coordinate -           - BOHR/RAD -       - ANG/DEG -
	 R(1,2)           =         1.873237	       0.991274
	 R(1,3)           =         1.873234	       0.991273
	 B(2,1,3)         =         1.710966	      98.031124

	Current energy   :       -74.9657209426

	Energy change for the previous step:
		Projected    :        -0.0027498488
		Actual       :        -0.0012717944

	Performing BFGS update.
	Previous computed or guess Hessian on step 1.
	Steps to be used in Hessian update: 1
	Taking RFO optimization step.
	Going to follow RFO solution 1.
	Using RFO vector 1.
	Norm of target step-size    0.04315
	Projected energy change by RFO approximation:        -0.0004218790

	Back-transformation to cartesian coordinates...
	Successfully converged to displaced geometry.

	--- Internal Coordinate Step in ANG or DEG, aJ/ANG or AJ/DEG ---
	 ---------------------------------------------------------------------------
	   Coordinate                Previous        Force       Change         New 
	   ----------                --------       ------       ------       ------
	    1 R(1,2)          =      0.991274    -0.007039     0.000477     0.991751
	    2 R(1,3)          =      0.991273    -0.007021     0.000478     0.991750
	    3 B(2,1,3)        =     98.031124     0.000778     2.470975   100.502100
	 ---------------------------------------------------------------------------
	Successfully symmetrized geometry.

  ==> Convergence Check <==

  Measures of convergence in internal coordinates in au.
  Criteria marked as inactive (o), active & met (*), and active & unmet ( ).
  ---------------------------------------------------------------------------------------------
   Step     Total Energy     Delta E     MAX Force     RMS Force      MAX Disp      RMS Disp   
  ---------------------------------------------------------------------------------------------
    Convergence Criteria    1.00e-06 *    3.00e-04 *             o    1.20e-03 *             o
  ---------------------------------------------------------------------------------------------
      2     -74.96572094   -1.27e-03      1.02e-02      5.94e-03 o    4.31e-02      2.49e-02 o  ~
  ---------------------------------------------------------------------------------------------

	Writing optimization data to binary file.
	Structure for next step:
	Cartesian Geometry (in Angstrom)
	    O     0.0468829680   0.0407318914   0.0000000000
	    H     0.0682664504  -0.9507884107   0.0000000000
	    H    -0.9319248190   0.2004325032   0.0000000000
			--------------------------
			 OPTKING Finished Execution 
			--------------------------

    Structure for next step:
    Molecular point group: cs
    Full point group: Cs

    Geometry (in Angstrom), charge = 0, multiplicity = 1:

    O       
    H             1          R1
    H             1          R2      2          A2

    A2        =  100.5020995102
    R1        =    0.9917508611
    R2        =    0.9917504611

gradient() will perform analytic gradient computation.

*** tstart() called on gunnar
*** at Tue Mar  5 12:35:46 2019

   => Loading Basis Set <=

    Name: STO-3G
    Role: ORBITAL
    Keyword: BASIS
    atoms 1   entry O          line    81 file /home/avcopan/miniconda/envs/pacc-env-mini/share/psi4/basis/sto-3g.gbs 
    atoms 2-3 entry H          line    19 file /home/avcopan/miniconda/envs/pacc-env-mini/share/psi4/basis/sto-3g.gbs 


         ---------------------------------------------------------
                                   SCF
               by Justin Turney, Rob Parrish, Andy Simmonett
                          and Daniel G. A. Smith
                              RHF Reference
                        1 Threads,    953 MiB Core
         ---------------------------------------------------------

  ==> Geometry <==

    Molecular point group: cs
    Full point group: Cs

    Geometry (in Angstrom), charge = 0, multiplicity = 1:

       Center              X                  Y                   Z               Mass       
    ------------   -----------------  -----------------  -----------------  -----------------
         O            0.054566160443     0.045380527728     0.000000000000    15.994914619570
         H            0.054566160443    -0.946370333344     0.000000000000     1.007825032230
         H           -0.920570724216     0.226148426580     0.000000000000     1.007825032230

  Running in cs symmetry.

  Rotational constants: A =     23.41761  B =     14.38431  C =      8.91082 [cm^-1]
  Rotational constants: A = 702042.42739  B = 431230.84771  C = 267139.76032 [MHz]
  Nuclear repulsion =    8.884258576917610

  Charge       = 0
  Multiplicity = 1
  Electrons    = 10
  Nalpha       = 5
  Nbeta        = 5

  ==> Algorithm <==

  SCF Algorithm Type is PK.
  DIIS enabled.
  MOM disabled.
  Fractional occupation disabled.
  Guess Type is READ.
  Energy threshold   = 1.00e-08
  Density threshold  = 1.00e-08
  Integral threshold = 0.00e+00

  ==> Primary Basis <==

  Basis Set: STO-3G
    Blend: STO-3G
    Number of shells: 5
    Number of basis function: 7
    Number of Cartesian functions: 7
    Spherical Harmonics?: true
    Max angular momentum: 1

   => Loading Basis Set <=

    Name: STO-3G
    Role: ORBITAL
    Keyword: BASIS
    atoms 1   entry O          line    81 file /home/avcopan/miniconda/envs/pacc-env-mini/share/psi4/basis/sto-3g.gbs 
    atoms 2-3 entry H          line    19 file /home/avcopan/miniconda/envs/pacc-env-mini/share/psi4/basis/sto-3g.gbs 

  Reading orbitals from file 180, no projection.

  ==> Pre-Iterations <==

   -------------------------------------------------------
    Irrep   Nso     Nmo     Nalpha   Nbeta   Ndocc  Nsocc
   -------------------------------------------------------
     A'         6       6       0       0       0       0
     A"         1       1       0       0       0       0
   -------------------------------------------------------
    Total       7       7       5       5       5       0
   -------------------------------------------------------

  ==> Integral Setup <==

  Using in-core PK algorithm.
   Calculation information:
      Number of atoms:                   3
      Number of AO shells:               5
      Number of primitives:             15
      Number of atomic orbitals:         7
      Number of basis functions:         7

      Integral cutoff                 1.00e-12
      Number of threads:                 1

  Performing in-core PK
  Using 812 doubles for integral storage.
  We computed 120 shell quartets total.
  Whereas there are 120 unique shell quartets.

  ==> DiskJK: Disk-Based J/K Matrices <==

    J tasked:                  Yes
    K tasked:                  Yes
    wK tasked:                  No
    Memory [MiB]:              715
    Schwarz Cutoff:          1E-12

    OpenMP threads:              1

  Minimum eigenvalue in the overlap matrix is 3.6470510705E-01.
  Using Symmetric Orthogonalization.

  SCF Guess: Orbitals guess was supplied from a previous computation.

  ==> Iterations <==

                        Total Energy        Delta E     RMS |[F,P]|

   @RHF iter   0:   -74.96799539244628   -7.49680e+01   1.91502e-03 
   @RHF iter   1:   -74.96584323231708    2.15216e-03   7.95286e-04 DIIS
   @RHF iter   2:   -74.96587088320513   -2.76509e-05   3.08939e-04 DIIS
   @RHF iter   3:   -74.96587607716071   -5.19396e-06   2.70938e-05 DIIS
   @RHF iter   4:   -74.96587611131824   -3.41575e-08   8.93244e-06 DIIS
   @RHF iter   5:   -74.96587611585544   -4.53720e-09   3.48598e-07 DIIS
   @RHF iter   6:   -74.96587611586013   -4.68958e-12   4.06660e-08 DIIS
   @RHF iter   7:   -74.96587611586023   -9.94760e-14   2.75972e-09 DIIS
  Energy and wave function converged.


  ==> Post-Iterations <==

    Orbital Energies [Eh]
    ---------------------

    Doubly Occupied:                                                      

       1Ap   -20.251327     2Ap    -1.255929     3Ap    -0.593511  
       4Ap    -0.458334     1App   -0.392192  

    Virtual:                                                              

       5Ap     0.578849     6Ap     0.691290  

    Final Occupation by Irrep:
             Ap   App 
    DOCC [     4,    1 ]

  @RHF Final Energy:   -74.96587611586023

   => Energetics <=

    Nuclear Repulsion Energy =              8.8842585769176097
    One-Electron Energy =                -121.7976860475841505
    Two-Electron Energy =                  37.9475513548062935
    Total Energy =                        -74.9658761158602402

Computation Completed


Properties will be evaluated at   0.000000,   0.000000,   0.000000 [a0]

Properties computed using the SCF density matrix

  Nuclear Dipole Moment: [e a0]
     X:    -0.8116      Y:    -0.6750      Z:     0.0000

  Electronic Dipole Moment: [e a0]
     X:     0.2964      Y:     0.2465      Z:     0.0000

  Dipole Moment: [e a0]
     X:    -0.5152      Y:    -0.4285      Z:     0.0000     Total:     0.6701

  Dipole Moment: [D]
     X:    -1.3095      Y:    -1.0891      Z:     0.0000     Total:     1.7032


*** tstop() called on gunnar at Tue Mar  5 12:35:46 2019
Module time:
	user time   =       0.18 seconds =       0.00 minutes
	system time =       0.00 seconds =       0.00 minutes
	total time  =          0 seconds =       0.00 minutes
Total time:
	user time   =       0.92 seconds =       0.02 minutes
	system time =       0.01 seconds =       0.00 minutes
	total time  =          1 seconds =       0.02 minutes

*** tstart() called on gunnar
*** at Tue Mar  5 12:35:46 2019


         ------------------------------------------------------------
                                   SCF GRAD                          
                          Rob Parrish, Justin Turney,                
                       Andy Simmonett, and Alex Sokolov              
         ------------------------------------------------------------

  ==> Geometry <==

    Molecular point group: cs
    Full point group: Cs

    Geometry (in Angstrom), charge = 0, multiplicity = 1:

       Center              X                  Y                   Z               Mass       
    ------------   -----------------  -----------------  -----------------  -----------------
         O            0.054566160443     0.045380527728     0.000000000000    15.994914619570
         H            0.054566160443    -0.946370333344     0.000000000000     1.007825032230
         H           -0.920570724216     0.226148426580     0.000000000000     1.007825032230

  Nuclear repulsion =    8.884258576917610

  ==> Basis Set <==

  Basis Set: STO-3G
    Blend: STO-3G
    Number of shells: 5
    Number of basis function: 7
    Number of Cartesian functions: 7
    Spherical Harmonics?: true
    Max angular momentum: 1

  ==> DirectJKGrad: Integral-Direct SCF Gradients <==

    Gradient:                    1
    J tasked:                  Yes
    K tasked:                  Yes
    wK tasked:                  No
    Integrals threads:           1
    Schwarz Cutoff:          0E+00


  -Total Gradient:
     Atom            X                  Y                   Z
    ------   -----------------  -----------------  -----------------
       1        0.001241969852     0.001033408215     0.000000000000
       2        0.001484328813    -0.003048419490     0.000000000000
       3       -0.002726298665     0.002015011275     0.000000000000


*** tstop() called on gunnar at Tue Mar  5 12:35:46 2019
Module time:
	user time   =       0.05 seconds =       0.00 minutes
	system time =       0.00 seconds =       0.00 minutes
	total time  =          0 seconds =       0.00 minutes
Total time:
	user time   =       0.97 seconds =       0.02 minutes
	system time =       0.01 seconds =       0.00 minutes
	total time  =          1 seconds =       0.02 minutes

			-----------------------------------------
			 OPTKING 2.0: for geometry optimizations 
			  - R.A. King,  Bethel University        
			-----------------------------------------

	Previous internal coordinate definitions found.
	---Fragment 1 Geometry and Gradient---
	 O           0.1031150990        0.0857567688        0.0000000000
	 H           0.1031150990       -1.7883807433        0.0000000000
	 H          -1.7396265479        0.4273585899        0.0000000000
	             0.0012419699        0.0010334082        0.0000000000
	             0.0014843288       -0.0030484195        0.0000000000
	            -0.0027262987        0.0020150113        0.0000000000

	---Fragment 1 Intrafragment Coordinates---
	 - Coordinate -           - BOHR/RAD -       - ANG/DEG -
	 R(1,2)           =         1.874138	       0.991751
	 R(1,3)           =         1.874137	       0.991750
	 B(2,1,3)         =         1.754093	     100.502100

	Current energy   :       -74.9658761159

	Energy change for the previous step:
		Projected    :        -0.0004218790
		Actual       :        -0.0001551733

	Performing BFGS update.
	Previous computed or guess Hessian on step 1.
	Steps to be used in Hessian update: 2 1
	Taking RFO optimization step.
	Going to follow RFO solution 1.
	Using RFO vector 1.
	Norm of target step-size    0.01081
	Projected energy change by RFO approximation:        -0.0000653493

	Back-transformation to cartesian coordinates...
	Successfully converged to displaced geometry.

	--- Internal Coordinate Step in ANG or DEG, aJ/ANG or AJ/DEG ---
	 ---------------------------------------------------------------------------
	   Coordinate                Previous        Force       Change         New 
	   ----------                --------       ------       ------       ------
	    1 R(1,2)          =      0.991751    -0.025115    -0.002266     0.989485
	    2 R(1,3)          =      0.991750    -0.025111    -0.002265     0.989485
	    3 B(2,1,3)        =    100.502100    -0.000212    -0.512942    99.989157
	 ---------------------------------------------------------------------------
	Successfully symmetrized geometry.

  ==> Convergence Check <==

  Measures of convergence in internal coordinates in au.
  Criteria marked as inactive (o), active & met (*), and active & unmet ( ).
  ---------------------------------------------------------------------------------------------
   Step     Total Energy     Delta E     MAX Force     RMS Force      MAX Disp      RMS Disp   
  ---------------------------------------------------------------------------------------------
    Convergence Criteria    1.00e-06 *    3.00e-04 *             o    1.20e-03 *             o
  ---------------------------------------------------------------------------------------------
      3     -74.96587612   -1.55e-04      3.05e-03      2.96e-03 o    8.95e-03      6.24e-03 o  ~
  ---------------------------------------------------------------------------------------------

	Writing optimization data to binary file.
	Structure for next step:
	Cartesian Geometry (in Angstrom)
	    O     0.0555660127   0.0462118611   0.0000000000
	    H     0.0511367311  -0.9432634174   0.0000000000
	    H    -0.9181411440   0.2222101799   0.0000000000
			--------------------------
			 OPTKING Finished Execution 
			--------------------------

    Structure for next step:
    Molecular point group: cs
    Full point group: Cs

    Geometry (in Angstrom), charge = 0, multiplicity = 1:

    O       
    H             1          R1
    H             1          R2      2          A2

    A2        =   99.9891574659
    R1        =    0.9894851960
    R2        =    0.9894852414

gradient() will perform analytic gradient computation.

*** tstart() called on gunnar
*** at Tue Mar  5 12:35:46 2019

   => Loading Basis Set <=

    Name: STO-3G
    Role: ORBITAL
    Keyword: BASIS
    atoms 1   entry O          line    81 file /home/avcopan/miniconda/envs/pacc-env-mini/share/psi4/basis/sto-3g.gbs 
    atoms 2-3 entry H          line    19 file /home/avcopan/miniconda/envs/pacc-env-mini/share/psi4/basis/sto-3g.gbs 


         ---------------------------------------------------------
                                   SCF
               by Justin Turney, Rob Parrish, Andy Simmonett
                          and Daniel G. A. Smith
                              RHF Reference
                        1 Threads,    953 MiB Core
         ---------------------------------------------------------

  ==> Geometry <==

    Molecular point group: cs
    Full point group: Cs

    Geometry (in Angstrom), charge = 0, multiplicity = 1:

       Center              X                  Y                   Z               Mass       
    ------------   -----------------  -----------------  -----------------  -----------------
         O            0.054529695804     0.045764638108     0.000000000000    15.994914619570
         H            0.054529695804    -0.943720557874     0.000000000000     1.007825032230
         H           -0.919955539295     0.217402540628     0.000000000000     1.007825032230

  Running in cs symmetry.

  Rotational constants: A =     23.27422  B =     14.55874  C =      8.95630 [cm^-1]
  Rotational constants: A = 697743.68669  B = 436460.02740  C = 268503.11353 [MHz]
  Nuclear repulsion =    8.905902306111205

  Charge       = 0
  Multiplicity = 1
  Electrons    = 10
  Nalpha       = 5
  Nbeta        = 5

  ==> Algorithm <==

  SCF Algorithm Type is PK.
  DIIS enabled.
  MOM disabled.
  Fractional occupation disabled.
  Guess Type is READ.
  Energy threshold   = 1.00e-08
  Density threshold  = 1.00e-08
  Integral threshold = 0.00e+00

  ==> Primary Basis <==

  Basis Set: STO-3G
    Blend: STO-3G
    Number of shells: 5
    Number of basis function: 7
    Number of Cartesian functions: 7
    Spherical Harmonics?: true
    Max angular momentum: 1

   => Loading Basis Set <=

    Name: STO-3G
    Role: ORBITAL
    Keyword: BASIS
    atoms 1   entry O          line    81 file /home/avcopan/miniconda/envs/pacc-env-mini/share/psi4/basis/sto-3g.gbs 
    atoms 2-3 entry H          line    19 file /home/avcopan/miniconda/envs/pacc-env-mini/share/psi4/basis/sto-3g.gbs 

  Reading orbitals from file 180, no projection.

  ==> Pre-Iterations <==

   -------------------------------------------------------
    Irrep   Nso     Nmo     Nalpha   Nbeta   Ndocc  Nsocc
   -------------------------------------------------------
     A'         6       6       0       0       0       0
     A"         1       1       0       0       0       0
   -------------------------------------------------------
    Total       7       7       5       5       5       0
   -------------------------------------------------------

  ==> Integral Setup <==

  Using in-core PK algorithm.
   Calculation information:
      Number of atoms:                   3
      Number of AO shells:               5
      Number of primitives:             15
      Number of atomic orbitals:         7
      Number of basis functions:         7

      Integral cutoff                 1.00e-12
      Number of threads:                 1

  Performing in-core PK
  Using 812 doubles for integral storage.
  We computed 120 shell quartets total.
  Whereas there are 120 unique shell quartets.

  ==> DiskJK: Disk-Based J/K Matrices <==

    J tasked:                  Yes
    K tasked:                  Yes
    wK tasked:                  No
    Memory [MiB]:              715
    Schwarz Cutoff:          1E-12

    OpenMP threads:              1

  Minimum eigenvalue in the overlap matrix is 3.6323086913E-01.
  Using Symmetric Orthogonalization.

  SCF Guess: Orbitals guess was supplied from a previous computation.

  ==> Iterations <==

                        Total Energy        Delta E     RMS |[F,P]|

   @RHF iter   0:   -74.96723658256462   -7.49672e+01   9.57477e-04 
   @RHF iter   1:   -74.96590006004637    1.33652e-03   1.45106e-04 DIIS
   @RHF iter   2:   -74.96590096736927   -9.07323e-07   5.44448e-05 DIIS
   @RHF iter   3:   -74.96590112148223   -1.54113e-07   3.79998e-06 DIIS
   @RHF iter   4:   -74.96590112213241   -6.50175e-10   1.36746e-06 DIIS
   @RHF iter   5:   -74.96590112224071   -1.08301e-10   8.58959e-08 DIIS
   @RHF iter   6:   -74.96590112224102   -3.12639e-13   1.50120e-08 DIIS
   @RHF iter   7:   -74.96590112224112   -9.94760e-14   3.69608e-10 DIIS
  Energy and wave function converged.


  ==> Post-Iterations <==

    Orbital Energies [Eh]
    ---------------------

    Doubly Occupied:                                                      

       1Ap   -20.251631     2Ap    -1.257553     3Ap    -0.593752  
       4Ap    -0.459808     1App   -0.392638  

    Virtual:                                                              

       5Ap     0.581779     6Ap     0.692490  

    Final Occupation by Irrep:
             Ap   App 
    DOCC [     4,    1 ]

  @RHF Final Energy:   -74.96590112224112

   => Energetics <=

    Nuclear Repulsion Energy =              8.9059023061112050
    One-Electron Energy =                -121.8328420118130708
    Two-Electron Energy =                  37.9610385834607555
    Total Energy =                        -74.9659011222411209

Computation Completed


Properties will be evaluated at   0.000000,   0.000000,   0.000000 [a0]

Properties computed using the SCF density matrix

  Nuclear Dipole Moment: [e a0]
     X:    -0.8110      Y:    -0.6807      Z:     0.0000

  Electronic Dipole Moment: [e a0]
     X:     0.2959      Y:     0.2484      Z:     0.0000

  Dipole Moment: [e a0]
     X:    -0.5151      Y:    -0.4323      Z:     0.0000     Total:     0.6725

  Dipole Moment: [D]
     X:    -1.3093      Y:    -1.0989      Z:     0.0000     Total:     1.7093


*** tstop() called on gunnar at Tue Mar  5 12:35:46 2019
Module time:
	user time   =       0.19 seconds =       0.00 minutes
	system time =       0.00 seconds =       0.00 minutes
	total time  =          0 seconds =       0.00 minutes
Total time:
	user time   =       1.17 seconds =       0.02 minutes
	system time =       0.01 seconds =       0.00 minutes
	total time  =          1 seconds =       0.02 minutes

*** tstart() called on gunnar
*** at Tue Mar  5 12:35:46 2019


         ------------------------------------------------------------
                                   SCF GRAD                          
                          Rob Parrish, Justin Turney,                
                       Andy Simmonett, and Alex Sokolov              
         ------------------------------------------------------------

  ==> Geometry <==

    Molecular point group: cs
    Full point group: Cs

    Geometry (in Angstrom), charge = 0, multiplicity = 1:

       Center              X                  Y                   Z               Mass       
    ------------   -----------------  -----------------  -----------------  -----------------
         O            0.054529695804     0.045764638108     0.000000000000    15.994914619570
         H            0.054529695804    -0.943720557874     0.000000000000     1.007825032230
         H           -0.919955539295     0.217402540628     0.000000000000     1.007825032230

  Nuclear repulsion =    8.905902306111205

  ==> Basis Set <==

  Basis Set: STO-3G
    Blend: STO-3G
    Number of shells: 5
    Number of basis function: 7
    Number of Cartesian functions: 7
    Spherical Harmonics?: true
    Max angular momentum: 1

  ==> DirectJKGrad: Integral-Direct SCF Gradients <==

    Gradient:                    1
    J tasked:                  Yes
    K tasked:                  Yes
    wK tasked:                  No
    Integrals threads:           1
    Schwarz Cutoff:          0E+00


  -Total Gradient:
     Atom            X                  Y                   Z
    ------   -----------------  -----------------  -----------------
       1        0.000179541894     0.000150623794     0.000000000000
       2       -0.000098776847    -0.000064551795     0.000000000000
       3       -0.000080765047    -0.000086072000     0.000000000000


*** tstop() called on gunnar at Tue Mar  5 12:35:47 2019
Module time:
	user time   =       0.05 seconds =       0.00 minutes
	system time =       0.00 seconds =       0.00 minutes
	total time  =          1 seconds =       0.02 minutes
Total time:
	user time   =       1.22 seconds =       0.02 minutes
	system time =       0.01 seconds =       0.00 minutes
	total time  =          2 seconds =       0.03 minutes

			-----------------------------------------
			 OPTKING 2.0: for geometry optimizations 
			  - R.A. King,  Bethel University        
			-----------------------------------------

	Previous internal coordinate definitions found.
	---Fragment 1 Geometry and Gradient---
	 O           0.1030461908        0.0864826323        0.0000000000
	 H           0.1030461908       -1.7833733933        0.0000000000
	 H          -1.7384640169        0.4108312608        0.0000000000
	             0.0001795419        0.0001506238        0.0000000000
	            -0.0000987768       -0.0000645518        0.0000000000
	            -0.0000807650       -0.0000860720        0.0000000000

	---Fragment 1 Intrafragment Coordinates---
	 - Coordinate -           - BOHR/RAD -       - ANG/DEG -
	 R(1,2)           =         1.869856	       0.989485
	 R(1,3)           =         1.869856	       0.989485
	 B(2,1,3)         =         1.745140	      99.989157

	Current energy   :       -74.9659011222

	Energy change for the previous step:
		Projected    :        -0.0000653493
		Actual       :        -0.0000250064

	Performing BFGS update.
	Previous computed or guess Hessian on step 1.
	Steps to be used in Hessian update: 3 2
	Taking RFO optimization step.
	Going to follow RFO solution 1.
	Using RFO vector 1.
	Norm of target step-size    0.00068
	Projected energy change by RFO approximation:        -0.0000001562

	Back-transformation to cartesian coordinates...
	Successfully converged to displaced geometry.

	--- Internal Coordinate Step in ANG or DEG, aJ/ANG or AJ/DEG ---
	 ---------------------------------------------------------------------------
	   Coordinate                Previous        Force       Change         New 
	   ----------                --------       ------       ------       ------
	    1 R(1,2)          =      0.989485    -0.000532    -0.000076     0.989409
	    2 R(1,3)          =      0.989485    -0.000532    -0.000076     0.989409
	    3 B(2,1,3)        =     99.989157     0.000014     0.037216   100.026374
	 ---------------------------------------------------------------------------
	Successfully symmetrized geometry.

  ==> Convergence Check <==

  Measures of convergence in internal coordinates in au.
  Criteria marked as inactive (o), active & met (*), and active & unmet ( ).
  ---------------------------------------------------------------------------------------------
   Step     Total Energy     Delta E     MAX Force     RMS Force      MAX Disp      RMS Disp   
  ---------------------------------------------------------------------------------------------
    Convergence Criteria    1.00e-06 *    3.00e-04 *             o    1.20e-03 *             o
  ---------------------------------------------------------------------------------------------
      4     -74.96590112   -2.50e-05      1.85e-04 *    1.19e-04 o    6.50e-04 *    3.93e-04 o  ~
  ---------------------------------------------------------------------------------------------


  **** Optimization is complete! (in 4 steps) ****

  ==> Optimization Summary <==

  Measures of convergence in internal coordinates in au.
  --------------------------------------------------------------------------------------------------------------- ~
   Step         Total Energy             Delta E       MAX Force       RMS Force        MAX Disp        RMS Disp  ~
  --------------------------------------------------------------------------------------------------------------- ~
      1     -74.964449148162    -74.964449148162      0.02271072      0.02097479      0.10379256      0.06907967  ~
      2     -74.965720942574     -0.001271794412      0.01022412      0.00594387      0.04312666      0.02491007  ~
      3     -74.965876115860     -0.000155173286      0.00304842      0.00296205      0.00895253      0.00623973  ~
      4     -74.965901122241     -0.000025006381      0.00018470      0.00011896      0.00064955      0.00039304  ~
  --------------------------------------------------------------------------------------------------------------- ~

	Writing optimization data to binary file.
	Final energy is    -74.9659011222411
	Final (previous) structure:
	Cartesian Geometry (in Angstrom)
	    O     0.0545296956   0.0457646379   0.0000000000
	    H     0.0545296956  -0.9437205542   0.0000000000
	    H    -0.9199555357   0.2174025398   0.0000000000
	Saving final (previous) structure.
			--------------------------
			 OPTKING Finished Execution 
			--------------------------

    Final optimized geometry and variables:
    Molecular point group: cs
    Full point group: Cs

    Geometry (in Angstrom), charge = 0, multiplicity = 1:

    O       
    H             1          R1
    H             1          R2      2          A2

    A2        =   99.9891574659
    R1        =    0.9894851960
    R2        =    0.9894852414

	Removing binary optimization data file.
	Cleaning optimization helper files.

    Psi4 stopped on: Tuesday, 05 March 2019 12:35PM
    Psi4 wall time for execution: 0:00:01.30

*** Psi4 exiting successfully. Buy a developer a beer!
