
    -----------------------------------------------------------------------
          Psi4: An Open-Source Ab Initio Electronic Structure Package
                               Psi4 1.3 release

                         Git: Rev {HEAD} 20e5c7e 


    R. M. Parrish, L. A. Burns, D. G. A. Smith, A. C. Simmonett,
    A. E. DePrince III, E. G. Hohenstein, U. Bozkaya, A. Yu. Sokolov,
    R. Di Remigio, R. M. Richard, J. F. Gonthier, A. M. James,
    H. R. McAlexander, A. Kumar, M. Saitow, X. Wang, B. P. Pritchard,
    P. Verma, H. F. Schaefer III, K. Patkowski, R. A. King, E. F. Valeev,
    F. A. Evangelista, J. M. Turney, T. D. Crawford, and C. D. Sherrill,
    J. Chem. Theory Comput. 13(7) pp 3185--3197 (2017).
    (doi: 10.1021/acs.jctc.7b00174)


                         Additional Contributions by
    P. Kraus, H. Kruse, M. H. Lechner, M. C. Schieber, R. A. Shaw,
    A. Alenaizan, R. Galvelis, Z. L. Glick, S. Lehtola, and J. P. Misiewicz

    -----------------------------------------------------------------------


    Psi4 started on: Thursday, 21 March 2019 05:27PM

    Process ID: 16497
    Host:       gunnar
    PSIDATADIR: /home/avcopan/miniconda/envs/pacc-env-mini/share/psi4
    Memory:     500.0 MiB
    Threads:    1
    
  ==> Input File <==

--------------------------------------------------------------------------
#! 
memory 1 GB

molecule {

0 1
O 
O 1    R1
H 1    R2 2    A2
H 2    R2 1    A2 3    D3
R1   =   1.454052
R2   =   0.976073
A2   =  96.772572
D3   = 129.366995
}
set optking {
  frozen_distance = ("
    3 1
    4 2
  ")
  frozen_bend = ("
    3 1 2
    4 2 1
  ")
  frozen_dihedral = ("
    4 2 1 3
  ")
}
set basis sto-3g
set scf_type pk
set reference rks
set mp2_type conv
optimize('b3lyp')
--------------------------------------------------------------------------

  Memory set to 953.674 MiB by Python driver.
gradient() will perform analytic gradient computation.

*** tstart() called on gunnar
*** at Thu Mar 21 17:27:42 2019

   => Loading Basis Set <=

    Name: STO-3G
    Role: ORBITAL
    Keyword: BASIS
    atoms 1-2 entry O          line    81 file /home/avcopan/miniconda/envs/pacc-env-mini/share/psi4/basis/sto-3g.gbs 
    atoms 3-4 entry H          line    19 file /home/avcopan/miniconda/envs/pacc-env-mini/share/psi4/basis/sto-3g.gbs 


         ---------------------------------------------------------
                                   SCF
               by Justin Turney, Rob Parrish, Andy Simmonett
                          and Daniel G. A. Smith
                              RKS Reference
                        1 Threads,    953 MiB Core
         ---------------------------------------------------------

  ==> Geometry <==

    Molecular point group: c2
    Full point group: C2

    Geometry (in Angstrom), charge = 0, multiplicity = 1:

       Center              X                  Y                   Z               Mass       
    ------------   -----------------  -----------------  -----------------  -----------------
         O            0.000000000000     0.727026000000     0.024567652631    15.994914619570
         O            0.000000000000    -0.727026000000     0.024567652631    15.994914619570
         H           -0.876173551226     0.842132935393    -0.389906475495     1.007825032230
         H            0.876173551226    -0.842132935393    -0.389906475495     1.007825032230

  Running in c2 symmetry.

  Rotational constants: A =      9.67495  B =      0.89694  C =      0.84773 [cm^-1]
  Rotational constants: A = 290047.77454  B =  26889.45053  C =  25414.30649 [MHz]
  Nuclear repulsion =   36.774426736494519

  Charge       = 0
  Multiplicity = 1
  Electrons    = 18
  Nalpha       = 9
  Nbeta        = 9

  ==> Algorithm <==

  SCF Algorithm Type is PK.
  DIIS enabled.
  MOM disabled.
  Fractional occupation disabled.
  Guess Type is SAD.
  Energy threshold   = 1.00e-08
  Density threshold  = 1.00e-08
  Integral threshold = 0.00e+00

  ==> Primary Basis <==

  Basis Set: STO-3G
    Blend: STO-3G
    Number of shells: 8
    Number of basis function: 12
    Number of Cartesian functions: 12
    Spherical Harmonics?: true
    Max angular momentum: 1

  ==> DFT Potential <==

   => Composite Functional: B3LYP <= 

    B3LYP Hyb-GGA Exchange-Correlation Functional

    P. J. Stephens, F. J. Devlin, C. F. Chabalowski, and M. J. Frisch, J. Phys. Chem. 98, 11623 (1994)

    Deriv               =              1
    GGA                 =           TRUE
    Meta                =          FALSE

    Exchange Hybrid     =           TRUE
    MP2 Hybrid          =          FALSE

   => Exchange Functionals <=

    0.0800   Slater exchange
    0.7200         Becke 88

   => Exact (HF) Exchange <=

    0.2000               HF 

   => Correlation Functionals <=

    0.1900   Vosko, Wilk & Nusair (VWN5_RPA)
    0.8100   Lee, Yang & Parr

   => Molecular Quadrature <=

    Radial Scheme          =       TREUTLER
    Pruning Scheme         =           FLAT
    Nuclear Scheme         =       TREUTLER

    BS radius alpha        =              1
    Pruning alpha          =              1
    Radial Points          =             75
    Spherical Points       =            302
    Total Points           =          86946
    Total Blocks           =            712
    Max Points             =            256
    Max Functions          =             12

  ==> Pre-Iterations <==

   -------------------------------------------------------
    Irrep   Nso     Nmo     Nalpha   Nbeta   Ndocc  Nsocc
   -------------------------------------------------------
     A          6       6       0       0       0       0
     B          6       6       0       0       0       0
   -------------------------------------------------------
    Total      12      12       9       9       9       0
   -------------------------------------------------------

  ==> Integral Setup <==

  Using in-core PK algorithm.
   Calculation information:
      Number of atoms:                   4
      Number of AO shells:               8
      Number of primitives:             24
      Number of atomic orbitals:        12
      Number of basis functions:        12

      Integral cutoff                 1.00e-12
      Number of threads:                 1

  Performing in-core PK
  Using 6162 doubles for integral storage.
  We computed 652 shell quartets total.
  Whereas there are 666 unique shell quartets.

  ==> DiskJK: Disk-Based J/K Matrices <==

    J tasked:                  Yes
    K tasked:                  Yes
    wK tasked:                  No
    Memory [MiB]:              686
    Schwarz Cutoff:          1E-12

    OpenMP threads:              1

  Cached 100.0% of DFT collocation blocks in 0.028 [GiB].

  Minimum eigenvalue in the overlap matrix is 3.6805261169E-01.
  Using Symmetric Orthogonalization.

  SCF Guess: Superposition of Atomic Densities via on-the-fly atomic UHF.

  ==> Iterations <==

                        Total Energy        Delta E     RMS |[F,P]|

   @RKS iter SAD:  -148.60723727042347   -1.48607e+02   0.00000e+00 
   @RKS iter   1:  -149.42648742294213   -8.19250e-01   1.49151e-02 DIIS
   @RKS iter   2:  -149.44078652327767   -1.42991e-02   5.38633e-03 DIIS
   @RKS iter   3:  -149.44243104784377   -1.64452e-03   8.58675e-04 DIIS
   @RKS iter   4:  -149.44247349560578   -4.24478e-05   3.83664e-05 DIIS
   @RKS iter   5:  -149.44247357926264   -8.36569e-08   1.04782e-06 DIIS
   @RKS iter   6:  -149.44247357938266   -1.20025e-10   1.01591e-07 DIIS
   @RKS iter   7:  -149.44247357938417   -1.50635e-12   5.25989e-09 DIIS
  Energy and wave function converged.


  ==> Post-Iterations <==

    Orbital Energies [Eh]
    ---------------------

    Doubly Occupied:                                                      

       1B    -18.903108     1A    -18.901928     2A     -1.037513  
       2B     -0.815829     3A     -0.408799     3B     -0.379814  
       4A     -0.272052     5A     -0.190759     4B     -0.119524  

    Virtual:                                                              

       5B      0.207131     6A      0.353007     6B      0.380742  

    Final Occupation by Irrep:
              A     B 
    DOCC [     5,    4 ]

  @RKS Final Energy:  -149.44247357938417

   => Energetics <=

    Nuclear Repulsion Energy =             36.7744267364945188
    One-Electron Energy =                -279.9517058511614209
    Two-Electron Energy =                 108.2704531363635567
    DFT Exchange-Correlation Energy =     -14.5356476010808446
    Empirical Dispersion Energy =           0.0000000000000000
    VV10 Nonlocal Energy =                  0.0000000000000000
    Total Energy =                       -149.4424735793841990

Computation Completed


Properties will be evaluated at   0.000000,   0.000000,   0.000000 [a0]

Properties computed using the SCF density matrix

  Nuclear Dipole Moment: [e a0]
     X:     0.0000      Y:     0.0000      Z:    -0.7308

  Electronic Dipole Moment: [e a0]
     X:     0.0000      Y:     0.0000      Z:     0.2769

  Dipole Moment: [e a0]
     X:     0.0000      Y:     0.0000      Z:    -0.4540     Total:     0.4540

  Dipole Moment: [D]
     X:     0.0000      Y:     0.0000      Z:    -1.1539     Total:     1.1539


*** tstop() called on gunnar at Thu Mar 21 17:27:44 2019
Module time:
	user time   =       1.55 seconds =       0.03 minutes
	system time =       0.03 seconds =       0.00 minutes
	total time  =          2 seconds =       0.03 minutes
Total time:
	user time   =       1.55 seconds =       0.03 minutes
	system time =       0.03 seconds =       0.00 minutes
	total time  =          2 seconds =       0.03 minutes

*** tstart() called on gunnar
*** at Thu Mar 21 17:27:44 2019


         ------------------------------------------------------------
                                   SCF GRAD                          
                          Rob Parrish, Justin Turney,                
                       Andy Simmonett, and Alex Sokolov              
         ------------------------------------------------------------

  ==> Geometry <==

    Molecular point group: c2
    Full point group: C2

    Geometry (in Angstrom), charge = 0, multiplicity = 1:

       Center              X                  Y                   Z               Mass       
    ------------   -----------------  -----------------  -----------------  -----------------
         O            0.000000000000     0.727026000000     0.024567652631    15.994914619570
         O            0.000000000000    -0.727026000000     0.024567652631    15.994914619570
         H           -0.876173551226     0.842132935393    -0.389906475495     1.007825032230
         H            0.876173551226    -0.842132935393    -0.389906475495     1.007825032230

  Nuclear repulsion =   36.774426736494519

  ==> Basis Set <==

  Basis Set: STO-3G
    Blend: STO-3G
    Number of shells: 8
    Number of basis function: 12
    Number of Cartesian functions: 12
    Spherical Harmonics?: true
    Max angular momentum: 1

  ==> DirectJKGrad: Integral-Direct SCF Gradients <==

    Gradient:                    1
    J tasked:                  Yes
    K tasked:                  Yes
    wK tasked:                  No
    Integrals threads:           1
    Schwarz Cutoff:          0E+00

  ==> DFT Potential <==

   => Composite Functional: B3LYP <= 

    B3LYP Hyb-GGA Exchange-Correlation Functional

    P. J. Stephens, F. J. Devlin, C. F. Chabalowski, and M. J. Frisch, J. Phys. Chem. 98, 11623 (1994)

    Deriv               =              1
    GGA                 =           TRUE
    Meta                =          FALSE

    Exchange Hybrid     =           TRUE
    MP2 Hybrid          =          FALSE

   => Exchange Functionals <=

    0.0800   Slater exchange
    0.7200         Becke 88

   => Exact (HF) Exchange <=

    0.2000               HF 

   => Correlation Functionals <=

    0.1900   Vosko, Wilk & Nusair (VWN5_RPA)
    0.8100   Lee, Yang & Parr

   => Molecular Quadrature <=

    Radial Scheme          =       TREUTLER
    Pruning Scheme         =           FLAT
    Nuclear Scheme         =       TREUTLER

    BS radius alpha        =              1
    Pruning alpha          =              1
    Radial Points          =             75
    Spherical Points       =            302
    Total Points           =          86946
    Total Blocks           =            712
    Max Points             =            256
    Max Functions          =             12


  -Total Gradient:
     Atom            X                  Y                   Z
    ------   -----------------  -----------------  -----------------
       1       -0.053898995224    -0.001380447165    -0.027610705300
       2        0.053898995224     0.001380447165    -0.027610705300
       3        0.060305228563    -0.013247035553     0.027606052449
       4       -0.060305228563     0.013247035553     0.027606052449


*** tstop() called on gunnar at Thu Mar 21 17:27:44 2019
Module time:
	user time   =       0.24 seconds =       0.00 minutes
	system time =       0.01 seconds =       0.00 minutes
	total time  =          0 seconds =       0.00 minutes
Total time:
	user time   =       1.79 seconds =       0.03 minutes
	system time =       0.04 seconds =       0.00 minutes
	total time  =          2 seconds =       0.03 minutes

			-----------------------------------------
			 OPTKING 2.0: for geometry optimizations 
			  - R.A. King,  Bethel University        
			-----------------------------------------

	Internal coordinates to be generated automatically.
	Detected frag 1 with atoms:  1 2 3 4
	---Fragment 1 Bond Connectivity---
	 1 : 2 3
	 2 : 1 4
	 3 : 1
	 4 : 2

	Assuming in current code that numbering for constraints corresponds to unified fragment.
	Frozen distance atom list: 
	     3     1
	     4     2
	Frozen bend atom list: 
	     3     1     2
	     4     2     1
	Frozen dihedral atom list: 
	     4     2     1     3
	---Fragment 1 Geometry and Gradient---
	 O           0.0000000000        1.3738800261        0.0464261350
	 O           0.0000000000       -1.3738800261        0.0464261350
	 H          -1.6557280502        1.5914006091       -0.7368164532
	 H           1.6557280502       -1.5914006091       -0.7368164532
	            -0.0538989952       -0.0013804472       -0.0276107053
	             0.0538989952        0.0013804472       -0.0276107053
	             0.0603052286       -0.0132470356        0.0276060524
	            -0.0603052286        0.0132470356        0.0276060524

	Previous optimization step data not found.  Starting new optimization.

	---Fragment 1 Intrafragment Coordinates---
	 - Coordinate -           - BOHR/RAD -       - ANG/DEG -
	 R(1,2)           =         2.747760	       1.454052
	*R(1,3)           =         1.844511	       0.976073
	*R(2,4)           =         1.844511	       0.976073
	*B(1,2,4)         =         1.689000	      96.772572
	*B(2,1,3)         =         1.689000	      96.772572
	*D(3,1,2,4)       =         2.257880	     129.366995

	Current energy   :      -149.4424735794

	Generating empirical Hessian (Schlegel '84) for each fragment.
	Taking RFO optimization step.
	Going to follow RFO solution 1.
	Using RFO vector 1.
	Norm of target step-size    0.03871
	Projected energy change by RFO approximation:        -0.0005652994

	Back-transformation to cartesian coordinates...
	Successfully converged to displaced geometry.

	Back-transformation to cartesian coordinates to adjust frozen coordinates...
	Successfully converged to displaced geometry.

	--- Internal Coordinate Step in ANG or DEG, aJ/ANG or AJ/DEG ---
	 ---------------------------------------------------------------------------
	   Coordinate                Previous        Force       Change         New 
	   ----------                --------       ------       ------       ------
	    1 R(1,2)          =      1.454052     0.120484     0.020486     1.474538
	    2 *R(1,3)         =      0.976073     0.000000     0.000000     0.976073
	    3 *R(2,4)         =      0.976073     0.000000     0.000000     0.976073
	    4 *B(1,2,4)       =     96.772572     0.000000    -0.000000    96.772572
	    5 *B(2,1,3)       =     96.772572     0.000000    -0.000000    96.772572
	    6 *D(3,1,2,4)     =    129.366995     0.000000    -0.000000   129.366995
	 ---------------------------------------------------------------------------
	Successfully symmetrized geometry.

  ==> Convergence Check <==

  Measures of convergence in internal coordinates in au.
  Criteria marked as inactive (o), active & met (*), and active & unmet ( ).
  --------------------------------------------------------------------------------------------- ~
   Step     Total Energy     Delta E     MAX Force     RMS Force      MAX Disp      RMS Disp    ~
  --------------------------------------------------------------------------------------------- ~
    Convergence Criteria    1.00e-06 *    3.00e-04 *             o    1.20e-03 *             o  ~
  --------------------------------------------------------------------------------------------- ~
      1    -149.44247358   -1.49e+02      1.46e-02      5.97e-03 o    3.87e-02      1.58e-02 o  ~
  ---------------------------------------------------------------------------------------------

	Writing optimization data to binary file.
	Structure for next step:
	Cartesian Geometry (in Angstrom)
	    O    -0.0032730856   0.7372617917   0.0245676525
	    O     0.0032730856  -0.7372617917   0.0245676525
	    H    -0.8799490132   0.8484778441  -0.3899064740
	    H     0.8799490132  -0.8484778441  -0.3899064740
			--------------------------
			 OPTKING Finished Execution 
			--------------------------

    Structure for next step:
    Molecular point group: c2
    Full point group: C2

    Geometry (in Angstrom), charge = 0, multiplicity = 1:

    O       
    O             1          R1
    H             1          R2      2          A2
    H             2          R2      1          A2      3          D3

    A2        =   96.7725720000
    D3        =  129.3669950000
    R1        =    1.4745381201
    R2        =    0.9760730000

gradient() will perform analytic gradient computation.

*** tstart() called on gunnar
*** at Thu Mar 21 17:27:44 2019

   => Loading Basis Set <=

    Name: STO-3G
    Role: ORBITAL
    Keyword: BASIS
    atoms 1-2 entry O          line    81 file /home/avcopan/miniconda/envs/pacc-env-mini/share/psi4/basis/sto-3g.gbs 
    atoms 3-4 entry H          line    19 file /home/avcopan/miniconda/envs/pacc-env-mini/share/psi4/basis/sto-3g.gbs 


         ---------------------------------------------------------
                                   SCF
               by Justin Turney, Rob Parrish, Andy Simmonett
                          and Daniel G. A. Smith
                              RKS Reference
                        1 Threads,    953 MiB Core
         ---------------------------------------------------------

  ==> Geometry <==

    Molecular point group: c2
    Full point group: C2

    Geometry (in Angstrom), charge = 0, multiplicity = 1:

       Center              X                  Y                   Z               Mass       
    ------------   -----------------  -----------------  -----------------  -----------------
         O            0.000000000000     0.737269060053     0.024567652631    15.994914619570
         O            0.000000000000    -0.737269060053     0.024567652631    15.994914619570
         H           -0.876173551226     0.852375995446    -0.389906475495     1.007825032230
         H            0.876173551226    -0.852375995446    -0.389906475495     1.007825032230

  Running in c2 symmetry.

  Rotational constants: A =      9.67080  B =      0.87306  C =      0.82634 [cm^-1]
  Rotational constants: A = 289923.15030  B =  26173.58526  C =  24772.98605 [MHz]
  Nuclear repulsion =   36.406510432105442

  Charge       = 0
  Multiplicity = 1
  Electrons    = 18
  Nalpha       = 9
  Nbeta        = 9

  ==> Algorithm <==

  SCF Algorithm Type is PK.
  DIIS enabled.
  MOM disabled.
  Fractional occupation disabled.
  Guess Type is READ.
  Energy threshold   = 1.00e-08
  Density threshold  = 1.00e-08
  Integral threshold = 0.00e+00

  ==> Primary Basis <==

  Basis Set: STO-3G
    Blend: STO-3G
    Number of shells: 8
    Number of basis function: 12
    Number of Cartesian functions: 12
    Spherical Harmonics?: true
    Max angular momentum: 1

  ==> DFT Potential <==

   => Composite Functional: B3LYP <= 

    B3LYP Hyb-GGA Exchange-Correlation Functional

    P. J. Stephens, F. J. Devlin, C. F. Chabalowski, and M. J. Frisch, J. Phys. Chem. 98, 11623 (1994)

    Deriv               =              1
    GGA                 =           TRUE
    Meta                =          FALSE

    Exchange Hybrid     =           TRUE
    MP2 Hybrid          =          FALSE

   => Exchange Functionals <=

    0.0800   Slater exchange
    0.7200         Becke 88

   => Exact (HF) Exchange <=

    0.2000               HF 

   => Correlation Functionals <=

    0.1900   Vosko, Wilk & Nusair (VWN5_RPA)
    0.8100   Lee, Yang & Parr

   => Molecular Quadrature <=

    Radial Scheme          =       TREUTLER
    Pruning Scheme         =           FLAT
    Nuclear Scheme         =       TREUTLER

    BS radius alpha        =              1
    Pruning alpha          =              1
    Radial Points          =             75
    Spherical Points       =            302
    Total Points           =          86950
    Total Blocks           =            711
    Max Points             =            256
    Max Functions          =             12

   => Loading Basis Set <=

    Name: STO-3G
    Role: ORBITAL
    Keyword: BASIS
    atoms 1-2 entry O          line    81 file /home/avcopan/miniconda/envs/pacc-env-mini/share/psi4/basis/sto-3g.gbs 
    atoms 3-4 entry H          line    19 file /home/avcopan/miniconda/envs/pacc-env-mini/share/psi4/basis/sto-3g.gbs 

  Reading orbitals from file 180, no projection.

  ==> Pre-Iterations <==

   -------------------------------------------------------
    Irrep   Nso     Nmo     Nalpha   Nbeta   Ndocc  Nsocc
   -------------------------------------------------------
     A          6       6       0       0       0       0
     B          6       6       0       0       0       0
   -------------------------------------------------------
    Total      12      12       9       9       9       0
   -------------------------------------------------------

  ==> Integral Setup <==

  Using in-core PK algorithm.
   Calculation information:
      Number of atoms:                   4
      Number of AO shells:               8
      Number of primitives:             24
      Number of atomic orbitals:        12
      Number of basis functions:        12

      Integral cutoff                 1.00e-12
      Number of threads:                 1

  Performing in-core PK
  Using 6162 doubles for integral storage.
  We computed 647 shell quartets total.
  Whereas there are 666 unique shell quartets.

  ==> DiskJK: Disk-Based J/K Matrices <==

    J tasked:                  Yes
    K tasked:                  Yes
    wK tasked:                  No
    Memory [MiB]:              686
    Schwarz Cutoff:          1E-12

    OpenMP threads:              1

  Cached 100.0% of DFT collocation blocks in 0.028 [GiB].

  Minimum eigenvalue in the overlap matrix is 3.6965739146E-01.
  Using Symmetric Orthogonalization.

  SCF Guess: Orbitals guess was supplied from a previous computation.

  ==> Iterations <==

                        Total Energy        Delta E     RMS |[F,P]|

   @RKS iter   0:  -149.43485084187168   -1.49435e+02   5.03580e-03 
   @RKS iter   1:  -149.44262922675597   -7.77838e-03   6.69458e-04 DIIS
   @RKS iter   2:  -149.44265286262242   -2.36359e-05   2.52345e-04 DIIS
   @RKS iter   3:  -149.44265654922700   -3.68660e-06   3.04496e-05 DIIS
   @RKS iter   4:  -149.44265660227572   -5.30487e-08   5.00245e-07 DIIS
   @RKS iter   5:  -149.44265660230394   -2.82228e-11   4.36153e-08 DIIS
   @RKS iter   6:  -149.44265660230414   -1.98952e-13   1.78459e-09 DIIS
  Energy and wave function converged.


  ==> Post-Iterations <==

    Orbital Energies [Eh]
    ---------------------

    Doubly Occupied:                                                      

       1B    -18.901914     1A    -18.900765     2A     -1.028934  
       2B     -0.818848     3A     -0.404406     3B     -0.376941  
       4A     -0.269116     5A     -0.191042     4B     -0.121872  

    Virtual:                                                              

       5B      0.192193     6A      0.353404     6B      0.381363  

    Final Occupation by Irrep:
              A     B 
    DOCC [     5,    4 ]

  @RKS Final Energy:  -149.44265660230414

   => Energetics <=

    Nuclear Repulsion Energy =             36.4065104321054420
    One-Electron Energy =                -279.2504908268026611
    Two-Electron Energy =                 107.9317972074506713
    DFT Exchange-Correlation Energy =     -14.5304734150575978
    Empirical Dispersion Energy =           0.0000000000000000
    VV10 Nonlocal Energy =                  0.0000000000000000
    Total Energy =                       -149.4426566023041403

Computation Completed


Properties will be evaluated at   0.000000,   0.000000,   0.000000 [a0]

Properties computed using the SCF density matrix

  Nuclear Dipole Moment: [e a0]
     X:     0.0000      Y:     0.0000      Z:    -0.7308

  Electronic Dipole Moment: [e a0]
     X:     0.0000      Y:     0.0000      Z:     0.2775

  Dipole Moment: [e a0]
     X:     0.0000      Y:     0.0000      Z:    -0.4533     Total:     0.4533

  Dipole Moment: [D]
     X:     0.0000      Y:     0.0000      Z:    -1.1522     Total:     1.1522


*** tstop() called on gunnar at Thu Mar 21 17:27:45 2019
Module time:
	user time   =       1.32 seconds =       0.02 minutes
	system time =       0.02 seconds =       0.00 minutes
	total time  =          1 seconds =       0.02 minutes
Total time:
	user time   =       3.12 seconds =       0.05 minutes
	system time =       0.06 seconds =       0.00 minutes
	total time  =          3 seconds =       0.05 minutes

*** tstart() called on gunnar
*** at Thu Mar 21 17:27:45 2019


         ------------------------------------------------------------
                                   SCF GRAD                          
                          Rob Parrish, Justin Turney,                
                       Andy Simmonett, and Alex Sokolov              
         ------------------------------------------------------------

  ==> Geometry <==

    Molecular point group: c2
    Full point group: C2

    Geometry (in Angstrom), charge = 0, multiplicity = 1:

       Center              X                  Y                   Z               Mass       
    ------------   -----------------  -----------------  -----------------  -----------------
         O            0.000000000000     0.737269060053     0.024567652631    15.994914619570
         O            0.000000000000    -0.737269060053     0.024567652631    15.994914619570
         H           -0.876173551226     0.852375995446    -0.389906475495     1.007825032230
         H            0.876173551226    -0.852375995446    -0.389906475495     1.007825032230

  Nuclear repulsion =   36.406510432105442

  ==> Basis Set <==

  Basis Set: STO-3G
    Blend: STO-3G
    Number of shells: 8
    Number of basis function: 12
    Number of Cartesian functions: 12
    Spherical Harmonics?: true
    Max angular momentum: 1

  ==> DirectJKGrad: Integral-Direct SCF Gradients <==

    Gradient:                    1
    J tasked:                  Yes
    K tasked:                  Yes
    wK tasked:                  No
    Integrals threads:           1
    Schwarz Cutoff:          0E+00

  ==> DFT Potential <==

   => Composite Functional: B3LYP <= 

    B3LYP Hyb-GGA Exchange-Correlation Functional

    P. J. Stephens, F. J. Devlin, C. F. Chabalowski, and M. J. Frisch, J. Phys. Chem. 98, 11623 (1994)

    Deriv               =              1
    GGA                 =           TRUE
    Meta                =          FALSE

    Exchange Hybrid     =           TRUE
    MP2 Hybrid          =          FALSE

   => Exchange Functionals <=

    0.0800   Slater exchange
    0.7200         Becke 88

   => Exact (HF) Exchange <=

    0.2000               HF 

   => Correlation Functionals <=

    0.1900   Vosko, Wilk & Nusair (VWN5_RPA)
    0.8100   Lee, Yang & Parr

   => Molecular Quadrature <=

    Radial Scheme          =       TREUTLER
    Pruning Scheme         =           FLAT
    Nuclear Scheme         =       TREUTLER

    BS radius alpha        =              1
    Pruning alpha          =              1
    Radial Points          =             75
    Spherical Points       =            302
    Total Points           =          86950
    Total Blocks           =            711
    Max Points             =            256
    Max Functions          =             12


  -Total Gradient:
     Atom            X                  Y                   Z
    ------   -----------------  -----------------  -----------------
       1       -0.056427410746     0.016577016834    -0.027809502188
       2        0.056427410746    -0.016577016834    -0.027809502188
       3        0.060850168496    -0.011724707450     0.027804234355
       4       -0.060850168496     0.011724707450     0.027804234355


*** tstop() called on gunnar at Thu Mar 21 17:27:46 2019
Module time:
	user time   =       0.24 seconds =       0.00 minutes
	system time =       0.00 seconds =       0.00 minutes
	total time  =          1 seconds =       0.02 minutes
Total time:
	user time   =       3.36 seconds =       0.06 minutes
	system time =       0.06 seconds =       0.00 minutes
	total time  =          4 seconds =       0.07 minutes

			-----------------------------------------
			 OPTKING 2.0: for geometry optimizations 
			  - R.A. King,  Bethel University        
			-----------------------------------------

	Previous internal coordinate definitions found.
	---Fragment 1 Geometry and Gradient---
	 O           0.0000000000        1.3932366043        0.0464261350
	 O           0.0000000000       -1.3932366043        0.0464261350
	 H          -1.6557280502        1.6107571873       -0.7368164532
	 H           1.6557280502       -1.6107571873       -0.7368164532
	            -0.0564274107        0.0165770168       -0.0278095022
	             0.0564274107       -0.0165770168       -0.0278095022
	             0.0608501685       -0.0117247075        0.0278042344
	            -0.0608501685        0.0117247075        0.0278042344

	---Fragment 1 Intrafragment Coordinates---
	 - Coordinate -           - BOHR/RAD -       - ANG/DEG -
	 R(1,2)           =         2.786473	       1.474538
	*R(1,3)           =         1.844511	       0.976073
	*R(2,4)           =         1.844511	       0.976073
	*B(1,2,4)         =         1.689000	      96.772572
	*B(2,1,3)         =         1.689000	      96.772572
	*D(3,1,2,4)       =         2.257880	     129.366995

	Current energy   :      -149.4426566023

	Energy change for the previous step:
		Projected    :        -0.0005652994
		Actual       :        -0.0001830229

	Performing BFGS update.
	Previous computed or guess Hessian on step 1.
	Steps to be used in Hessian update: 1
	Taking RFO optimization step.
	Going to follow RFO solution 1.
	Using RFO vector 1.
	Norm of target step-size    0.00965
	Projected energy change by RFO approximation:        -0.0000468482

	Back-transformation to cartesian coordinates...
	Successfully converged to displaced geometry.

	Back-transformation to cartesian coordinates to adjust frozen coordinates...
	Successfully converged to displaced geometry.

	--- Internal Coordinate Step in ANG or DEG, aJ/ANG or AJ/DEG ---
	 ---------------------------------------------------------------------------
	   Coordinate                Previous        Force       Change         New 
	   ----------                --------       ------       ------       ------
	    1 R(1,2)          =      1.474538    -0.040005    -0.005106     1.469432
	    2 *R(1,3)         =      0.976073    -0.000000     0.000000     0.976073
	    3 *R(2,4)         =      0.976073    -0.000000     0.000000     0.976073
	    4 *B(1,2,4)       =     96.772572     0.000000     0.000000    96.772572
	    5 *B(2,1,3)       =     96.772572     0.000000    -0.000000    96.772572
	    6 *D(3,1,2,4)     =    129.366995     0.000000     0.000000   129.366995
	 ---------------------------------------------------------------------------
	Successfully symmetrized geometry.

  ==> Convergence Check <==

  Measures of convergence in internal coordinates in au.
  Criteria marked as inactive (o), active & met (*), and active & unmet ( ).
  ---------------------------------------------------------------------------------------------
   Step     Total Energy     Delta E     MAX Force     RMS Force      MAX Disp      RMS Disp   
  ---------------------------------------------------------------------------------------------
    Convergence Criteria    1.00e-06 *    3.00e-04 *             o    1.20e-03 *             o
  ---------------------------------------------------------------------------------------------
      2    -149.44265660   -1.83e-04      4.86e-03      1.98e-03 o    9.65e-03      3.94e-03 o  ~
  ---------------------------------------------------------------------------------------------

	Writing optimization data to binary file.
	Structure for next step:
	Cartesian Geometry (in Angstrom)
	    O     0.0008081082   0.7347155914   0.0245676525
	    O    -0.0008081082  -0.7347155914   0.0245676525
	    H    -0.8752383044   0.8507861530  -0.3899064740
	    H     0.8752383044  -0.8507861530  -0.3899064740
			--------------------------
			 OPTKING Finished Execution 
			--------------------------

    Structure for next step:
    Molecular point group: c2
    Full point group: C2

    Geometry (in Angstrom), charge = 0, multiplicity = 1:

    O       
    O             1          R1
    H             1          R2      2          A2
    H             2          R2      1          A2      3          D3

    A2        =   96.7725720000
    D3        =  129.3669950000
    R1        =    1.4694320775
    R2        =    0.9760730000

gradient() will perform analytic gradient computation.

*** tstart() called on gunnar
*** at Thu Mar 21 17:27:46 2019

   => Loading Basis Set <=

    Name: STO-3G
    Role: ORBITAL
    Keyword: BASIS
    atoms 1-2 entry O          line    81 file /home/avcopan/miniconda/envs/pacc-env-mini/share/psi4/basis/sto-3g.gbs 
    atoms 3-4 entry H          line    19 file /home/avcopan/miniconda/envs/pacc-env-mini/share/psi4/basis/sto-3g.gbs 


         ---------------------------------------------------------
                                   SCF
               by Justin Turney, Rob Parrish, Andy Simmonett
                          and Daniel G. A. Smith
                              RKS Reference
                        1 Threads,    953 MiB Core
         ---------------------------------------------------------

  ==> Geometry <==

    Molecular point group: c2
    Full point group: C2

    Geometry (in Angstrom), charge = 0, multiplicity = 1:

       Center              X                  Y                   Z               Mass       
    ------------   -----------------  -----------------  -----------------  -----------------
         O            0.000000000000     0.734716038739     0.024567652631    15.994914619570
         O            0.000000000000    -0.734716038739     0.024567652631    15.994914619570
         H           -0.876173551226     0.849822974132    -0.389906475495     1.007825032230
         H            0.876173551226    -0.849822974132    -0.389906475495     1.007825032230

  Running in c2 symmetry.

  Rotational constants: A =      9.67182  B =      0.87892  C =      0.83160 [cm^-1]
  Rotational constants: A = 289953.75961  B =  26349.34118  C =  24930.60492 [MHz]
  Nuclear repulsion =   36.497305001068433

  Charge       = 0
  Multiplicity = 1
  Electrons    = 18
  Nalpha       = 9
  Nbeta        = 9

  ==> Algorithm <==

  SCF Algorithm Type is PK.
  DIIS enabled.
  MOM disabled.
  Fractional occupation disabled.
  Guess Type is READ.
  Energy threshold   = 1.00e-08
  Density threshold  = 1.00e-08
  Integral threshold = 0.00e+00

  ==> Primary Basis <==

  Basis Set: STO-3G
    Blend: STO-3G
    Number of shells: 8
    Number of basis function: 12
    Number of Cartesian functions: 12
    Spherical Harmonics?: true
    Max angular momentum: 1

  ==> DFT Potential <==

   => Composite Functional: B3LYP <= 

    B3LYP Hyb-GGA Exchange-Correlation Functional

    P. J. Stephens, F. J. Devlin, C. F. Chabalowski, and M. J. Frisch, J. Phys. Chem. 98, 11623 (1994)

    Deriv               =              1
    GGA                 =           TRUE
    Meta                =          FALSE

    Exchange Hybrid     =           TRUE
    MP2 Hybrid          =          FALSE

   => Exchange Functionals <=

    0.0800   Slater exchange
    0.7200         Becke 88

   => Exact (HF) Exchange <=

    0.2000               HF 

   => Correlation Functionals <=

    0.1900   Vosko, Wilk & Nusair (VWN5_RPA)
    0.8100   Lee, Yang & Parr

   => Molecular Quadrature <=

    Radial Scheme          =       TREUTLER
    Pruning Scheme         =           FLAT
    Nuclear Scheme         =       TREUTLER

    BS radius alpha        =              1
    Pruning alpha          =              1
    Radial Points          =             75
    Spherical Points       =            302
    Total Points           =          86946
    Total Blocks           =            709
    Max Points             =            256
    Max Functions          =             12

   => Loading Basis Set <=

    Name: STO-3G
    Role: ORBITAL
    Keyword: BASIS
    atoms 1-2 entry O          line    81 file /home/avcopan/miniconda/envs/pacc-env-mini/share/psi4/basis/sto-3g.gbs 
    atoms 3-4 entry H          line    19 file /home/avcopan/miniconda/envs/pacc-env-mini/share/psi4/basis/sto-3g.gbs 

  Reading orbitals from file 180, no projection.

  ==> Pre-Iterations <==

   -------------------------------------------------------
    Irrep   Nso     Nmo     Nalpha   Nbeta   Ndocc  Nsocc
   -------------------------------------------------------
     A          6       6       0       0       0       0
     B          6       6       0       0       0       0
   -------------------------------------------------------
    Total      12      12       9       9       9       0
   -------------------------------------------------------

  ==> Integral Setup <==

  Using in-core PK algorithm.
   Calculation information:
      Number of atoms:                   4
      Number of AO shells:               8
      Number of primitives:             24
      Number of atomic orbitals:        12
      Number of basis functions:        12

      Integral cutoff                 1.00e-12
      Number of threads:                 1

  Performing in-core PK
  Using 6162 doubles for integral storage.
  We computed 649 shell quartets total.
  Whereas there are 666 unique shell quartets.

  ==> DiskJK: Disk-Based J/K Matrices <==

    J tasked:                  Yes
    K tasked:                  Yes
    wK tasked:                  No
    Memory [MiB]:              686
    Schwarz Cutoff:          1E-12

    OpenMP threads:              1

  Cached 100.0% of DFT collocation blocks in 0.028 [GiB].

  Minimum eigenvalue in the overlap matrix is 3.6927791896E-01.
  Using Symmetric Orthogonalization.

  SCF Guess: Orbitals guess was supplied from a previous computation.

  ==> Iterations <==

                        Total Energy        Delta E     RMS |[F,P]|

   @RKS iter   0:  -149.44470190097621   -1.49445e+02   1.23734e-03 
   @RKS iter   1:  -149.44267922034138    2.02268e-03   1.68034e-04 DIIS
   @RKS iter   2:  -149.44268069866121   -1.47832e-06   6.40497e-05 DIIS
   @RKS iter   3:  -149.44268093624044   -2.37579e-07   7.53789e-06 DIIS
   @RKS iter   4:  -149.44268093948540   -3.24496e-09   1.22233e-07 DIIS
   @RKS iter   5:  -149.44268093948710   -1.70530e-12   1.07694e-08 DIIS
   @RKS iter   6:  -149.44268093948725   -1.42109e-13   4.25019e-10 DIIS
  Energy and wave function converged.


  ==> Post-Iterations <==

    Orbital Energies [Eh]
    ---------------------

    Doubly Occupied:                                                      

       1B    -18.902204     1A    -18.901047     2A     -1.031023  
       2B     -0.818103     3A     -0.405491     3B     -0.377640  
       4A     -0.269825     5A     -0.190989     4B     -0.121298  

    Virtual:                                                              

       5B      0.195845     6A      0.353305     6B      0.381215  

    Final Occupation by Irrep:
              A     B 
    DOCC [     5,    4 ]

  @RKS Final Energy:  -149.44268093948725

   => Energetics <=

    Nuclear Repulsion Energy =             36.4973050010684332
    One-Electron Energy =                -279.4237697165697227
    Two-Electron Energy =                 108.0155180600586959
    DFT Exchange-Correlation Energy =     -14.5317342840446599
    Empirical Dispersion Energy =           0.0000000000000000
    VV10 Nonlocal Energy =                  0.0000000000000000
    Total Energy =                       -149.4426809394872464

Computation Completed


Properties will be evaluated at   0.000000,   0.000000,   0.000000 [a0]

Properties computed using the SCF density matrix

  Nuclear Dipole Moment: [e a0]
     X:     0.0000      Y:     0.0000      Z:    -0.7308

  Electronic Dipole Moment: [e a0]
     X:     0.0000      Y:     0.0000      Z:     0.2774

  Dipole Moment: [e a0]
     X:     0.0000      Y:     0.0000      Z:    -0.4535     Total:     0.4535

  Dipole Moment: [D]
     X:     0.0000      Y:     0.0000      Z:    -1.1526     Total:     1.1526


*** tstop() called on gunnar at Thu Mar 21 17:27:47 2019
Module time:
	user time   =       1.15 seconds =       0.02 minutes
	system time =       0.02 seconds =       0.00 minutes
	total time  =          1 seconds =       0.02 minutes
Total time:
	user time   =       4.52 seconds =       0.08 minutes
	system time =       0.08 seconds =       0.00 minutes
	total time  =          5 seconds =       0.08 minutes

*** tstart() called on gunnar
*** at Thu Mar 21 17:27:47 2019


         ------------------------------------------------------------
                                   SCF GRAD                          
                          Rob Parrish, Justin Turney,                
                       Andy Simmonett, and Alex Sokolov              
         ------------------------------------------------------------

  ==> Geometry <==

    Molecular point group: c2
    Full point group: C2

    Geometry (in Angstrom), charge = 0, multiplicity = 1:

       Center              X                  Y                   Z               Mass       
    ------------   -----------------  -----------------  -----------------  -----------------
         O            0.000000000000     0.734716038739     0.024567652631    15.994914619570
         O            0.000000000000    -0.734716038739     0.024567652631    15.994914619570
         H           -0.876173551226     0.849822974132    -0.389906475495     1.007825032230
         H            0.876173551226    -0.849822974132    -0.389906475495     1.007825032230

  Nuclear repulsion =   36.497305001068433

  ==> Basis Set <==

  Basis Set: STO-3G
    Blend: STO-3G
    Number of shells: 8
    Number of basis function: 12
    Number of Cartesian functions: 12
    Spherical Harmonics?: true
    Max angular momentum: 1

  ==> DirectJKGrad: Integral-Direct SCF Gradients <==

    Gradient:                    1
    J tasked:                  Yes
    K tasked:                  Yes
    wK tasked:                  No
    Integrals threads:           1
    Schwarz Cutoff:          0E+00

  ==> DFT Potential <==

   => Composite Functional: B3LYP <= 

    B3LYP Hyb-GGA Exchange-Correlation Functional

    P. J. Stephens, F. J. Devlin, C. F. Chabalowski, and M. J. Frisch, J. Phys. Chem. 98, 11623 (1994)

    Deriv               =              1
    GGA                 =           TRUE
    Meta                =          FALSE

    Exchange Hybrid     =           TRUE
    MP2 Hybrid          =          FALSE

   => Exchange Functionals <=

    0.0800   Slater exchange
    0.7200         Becke 88

   => Exact (HF) Exchange <=

    0.2000               HF 

   => Correlation Functionals <=

    0.1900   Vosko, Wilk & Nusair (VWN5_RPA)
    0.8100   Lee, Yang & Parr

   => Molecular Quadrature <=

    Radial Scheme          =       TREUTLER
    Pruning Scheme         =           FLAT
    Nuclear Scheme         =       TREUTLER

    BS radius alpha        =              1
    Pruning alpha          =              1
    Radial Points          =             75
    Spherical Points       =            302
    Total Points           =          86946
    Total Blocks           =            709
    Max Points             =            256
    Max Functions          =             12


  -Total Gradient:
     Atom            X                  Y                   Z
    ------   -----------------  -----------------  -----------------
       1       -0.055817364490     0.012272705605    -0.027758140320
       2        0.055817364490    -0.012272705605    -0.027758140320
       3        0.060713842883    -0.012091094840     0.027753030260
       4       -0.060713842883     0.012091094840     0.027753030260


*** tstop() called on gunnar at Thu Mar 21 17:27:47 2019
Module time:
	user time   =       0.23 seconds =       0.00 minutes
	system time =       0.00 seconds =       0.00 minutes
	total time  =          0 seconds =       0.00 minutes
Total time:
	user time   =       4.75 seconds =       0.08 minutes
	system time =       0.08 seconds =       0.00 minutes
	total time  =          5 seconds =       0.08 minutes

			-----------------------------------------
			 OPTKING 2.0: for geometry optimizations 
			  - R.A. King,  Bethel University        
			-----------------------------------------

	Previous internal coordinate definitions found.
	---Fragment 1 Geometry and Gradient---
	 O           0.0000000000        1.3884120932        0.0464261350
	 O           0.0000000000       -1.3884120932        0.0464261350
	 H          -1.6557280502        1.6059326762       -0.7368164532
	 H           1.6557280502       -1.6059326762       -0.7368164532
	            -0.0558173645        0.0122727056       -0.0277581403
	             0.0558173645       -0.0122727056       -0.0277581403
	             0.0607138429       -0.0120910948        0.0277530303
	            -0.0607138429        0.0120910948        0.0277530303

	---Fragment 1 Intrafragment Coordinates---
	 - Coordinate -           - BOHR/RAD -       - ANG/DEG -
	 R(1,2)           =         2.776824	       1.469432
	*R(1,3)           =         1.844511	       0.976073
	*R(2,4)           =         1.844511	       0.976073
	*B(1,2,4)         =         1.689000	      96.772572
	*B(2,1,3)         =         1.689000	      96.772572
	*D(3,1,2,4)       =         2.257880	     129.366995

	Current energy   :      -149.4426809395

	Energy change for the previous step:
		Projected    :        -0.0000468482
		Actual       :        -0.0000243372

	Performing BFGS update.
	Previous computed or guess Hessian on step 1.
	Steps to be used in Hessian update: 2 1
	Taking RFO optimization step.
	Going to follow RFO solution 1.
	Using RFO vector 1.
	Norm of target step-size    0.00036
	Projected energy change by RFO approximation:        -0.0000000672

	Back-transformation to cartesian coordinates...
	Successfully converged to displaced geometry.

	Back-transformation to cartesian coordinates to adjust frozen coordinates...
	Successfully converged to displaced geometry.

	--- Internal Coordinate Step in ANG or DEG, aJ/ANG or AJ/DEG ---
	 ---------------------------------------------------------------------------
	   Coordinate                Previous        Force       Change         New 
	   ----------                --------       ------       ------       ------
	    1 R(1,2)          =      1.469432    -0.001524    -0.000192     1.469240
	    2 *R(1,3)         =      0.976073    -0.000000     0.000000     0.976073
	    3 *R(2,4)         =      0.976073    -0.000000     0.000000     0.976073
	    4 *B(1,2,4)       =     96.772572    -0.000000    -0.000000    96.772572
	    5 *B(2,1,3)       =     96.772572     0.000000     0.000000    96.772572
	    6 *D(3,1,2,4)     =    129.366995     0.000000     0.000000   129.366995
	 ---------------------------------------------------------------------------
	Successfully symmetrized geometry.

  ==> Convergence Check <==

  Measures of convergence in internal coordinates in au.
  Criteria marked as inactive (o), active & met (*), and active & unmet ( ).
  ---------------------------------------------------------------------------------------------
   Step     Total Energy     Delta E     MAX Force     RMS Force      MAX Disp      RMS Disp   
  ---------------------------------------------------------------------------------------------
    Convergence Criteria    1.00e-06 *    3.00e-04 *             o    1.20e-03 *             o
  ---------------------------------------------------------------------------------------------
      3    -149.44268094   -2.43e-05      1.85e-04 *    7.55e-05 o    3.63e-04 *    1.48e-04 o  ~
  ---------------------------------------------------------------------------------------------


  **** Optimization is complete! (in 3 steps) ****

  ==> Optimization Summary <==

  Measures of convergence in internal coordinates in au.
  --------------------------------------------------------------------------------------------------------------- ~
   Step         Total Energy             Delta E       MAX Force       RMS Force        MAX Disp        RMS Disp  ~
  --------------------------------------------------------------------------------------------------------------- ~
      1    -149.442473579384   -149.442473579384      0.01462414      0.00597028      0.03871316      0.01580458  ~
      2    -149.442656602304     -0.000183022920      0.00485568      0.00198232      0.00964902      0.00393920  ~
      3    -149.442680939487     -0.000024337183      0.00018497      0.00007552      0.00036303      0.00014821  ~
  --------------------------------------------------------------------------------------------------------------- ~

	Writing optimization data to binary file.
	Final energy is   -149.4426809394872
	Final (previous) structure:
	Cartesian Geometry (in Angstrom)
	    O     0.0000000000   0.7347160359   0.0245676525
	    O     0.0000000000  -0.7347160359   0.0245676525
	    H    -0.8761735478   0.8498229708  -0.3899064740
	    H     0.8761735478  -0.8498229708  -0.3899064740
	Saving final (previous) structure.
			--------------------------
			 OPTKING Finished Execution 
			--------------------------

    Final optimized geometry and variables:
    Molecular point group: c2
    Full point group: C2

    Geometry (in Angstrom), charge = 0, multiplicity = 1:

    O       
    O             1          R1
    H             1          R2      2          A2
    H             2          R2      1          A2      3          D3

    A2        =   96.7725720000
    D3        =  129.3669950000
    R1        =    1.4694320775
    R2        =    0.9760730000

	Removing binary optimization data file.
	Cleaning optimization helper files.

    Psi4 stopped on: Thursday, 21 March 2019 05:27PM
    Psi4 wall time for execution: 0:00:04.90

*** Psi4 exiting successfully. Buy a developer a beer!
