 Entering Gaussian System, Link 0=g09
 Initial command:
 /soft/gaussian/09-e.01/g09/l1.exe "/scratch/kmoore/Gau-133082.inp" -scrdir="/scratch/kmoore"
 Entering Link 1 = /soft/gaussian/09-e.01/g09/l1.exe PID=    133085.
  
 Copyright (c) 1988,1990,1992,1993,1995,1998,2003,2009,2015,
            Gaussian, Inc.  All Rights Reserved.
  
 This is part of the Gaussian(R) 09 program.  It is based on
 the Gaussian(R) 03 system (copyright 2003, Gaussian, Inc.),
 the Gaussian(R) 98 system (copyright 1998, Gaussian, Inc.),
 the Gaussian(R) 94 system (copyright 1995, Gaussian, Inc.),
 the Gaussian 92(TM) system (copyright 1992, Gaussian, Inc.),
 the Gaussian 90(TM) system (copyright 1990, Gaussian, Inc.),
 the Gaussian 88(TM) system (copyright 1988, Gaussian, Inc.),
 the Gaussian 86(TM) system (copyright 1986, Carnegie Mellon
 University), and the Gaussian 82(TM) system (copyright 1983,
 Carnegie Mellon University). Gaussian is a federally registered
 trademark of Gaussian, Inc.
  
 This software contains proprietary and confidential information,
 including trade secrets, belonging to Gaussian, Inc.
  
 This software is provided under written license and may be
 used, copied, transmitted, or stored only in accord with that
 written license.
  
 The following legend is applicable only to US Government
 contracts under FAR:
  
                    RESTRICTED RIGHTS LEGEND
  
 Use, reproduction and disclosure by the US Government is
 subject to restrictions as set forth in subparagraphs (a)
 and (c) of the Commercial Computer Software - Restricted
 Rights clause in FAR 52.227-19.
  
 Gaussian, Inc.
 340 Quinnipiac St., Bldg. 40, Wallingford CT 06492
  
  
 ---------------------------------------------------------------
 Warning -- This program may not be used in any manner that
 competes with the business of Gaussian, Inc. or will provide
 assistance to any competitor of Gaussian, Inc.  The licensee
 of this program is prohibited from giving any competitor of
 Gaussian, Inc. access to this program.  By using this program,
 the user acknowledges that Gaussian, Inc. is engaged in the
 business of creating and licensing software in the field of
 computational chemistry and represents and warrants to the
 licensee that it is not a competitor of Gaussian, Inc. and that
 it will not use this program in any manner prohibited above.
 ---------------------------------------------------------------
  

 Cite this work as:
 Gaussian 09, Revision E.01,
 M. J. Frisch, G. W. Trucks, H. B. Schlegel, G. E. Scuseria, 
 M. A. Robb, J. R. Cheeseman, G. Scalmani, V. Barone, B. Mennucci, 
 G. A. Petersson, H. Nakatsuji, M. Caricato, X. Li, H. P. Hratchian, 
 A. F. Izmaylov, J. Bloino, G. Zheng, J. L. Sonnenberg, M. Hada, 
 M. Ehara, K. Toyota, R. Fukuda, J. Hasegawa, M. Ishida, T. Nakajima, 
 Y. Honda, O. Kitao, H. Nakai, T. Vreven, J. A. Montgomery, Jr., 
 J. E. Peralta, F. Ogliaro, M. Bearpark, J. J. Heyd, E. Brothers, 
 K. N. Kudin, V. N. Staroverov, T. Keith, R. Kobayashi, J. Normand, 
 K. Raghavachari, A. Rendell, J. C. Burant, S. S. Iyengar, J. Tomasi, 
 M. Cossi, N. Rega, J. M. Millam, M. Klene, J. E. Knox, J. B. Cross, 
 V. Bakken, C. Adamo, J. Jaramillo, R. Gomperts, R. E. Stratmann, 
 O. Yazyev, A. J. Austin, R. Cammi, C. Pomelli, J. W. Ochterski, 
 R. L. Martin, K. Morokuma, V. G. Zakrzewski, G. A. Voth, 
 P. Salvador, J. J. Dannenberg, S. Dapprich, A. D. Daniels, 
 O. Farkas, J. B. Foresman, J. V. Ortiz, J. Cioslowski, 
 and D. J. Fox, Gaussian, Inc., Wallingford CT, 2013.
 
 ******************************************
 Gaussian 09:  ES64L-G09RevE.01 30-Nov-2015
                20-Sep-2019 
 ******************************************
 %mem=1GB
 -------------------------------------------------------
 #P b3lyp/6-31g # SCF=(xqc) # Opt # Freq=(ANHARM,VIBROT)
 -------------------------------------------------------
 1/14=-1,18=20,19=15,26=3,38=1,80=1/1,3;
 2/9=110,12=2,17=6,18=5,40=1/2;
 3/5=1,6=6,11=2,16=1,25=1,30=1,71=1,74=-5/1,2,3;
 4//1;
 5/5=2,8=3,13=1,38=5/2,8;
 6/7=2,8=2,9=2,10=2,28=1/1;
 7//1,2,3,16;
 1/14=-1,18=20,19=15,26=3,80=1/3(2);
 2/9=110/2;
 99/8=1100/99;
 2/9=110/2;
 3/5=1,6=6,11=2,16=1,25=1,30=1,71=1,74=-5/1,2,3;
 4/5=5,16=3,69=1/1;
 5/5=2,8=3,13=1,38=5/2,8;
 7//1,2,3,16;
 1/14=-1,18=20,19=15,26=3,80=1/3(-5);
 2/9=110/2;
 6/7=2,8=2,9=2,10=2,19=2,28=1/1;
 99/8=1100,9=1/99;
 Leave Link    1 at Fri Sep 20 13:12:00 2019, MaxMem=   134217728 cpu:         0.0
 (Enter /soft/gaussian/09-e.01/g09/l101.exe)
 --------
 comment:
 --------
 Symbolic Z-matrix:
 Charge =  0 Multiplicity = 1
 N                    -2.4009   -0.16155   0. 
 N                    -1.28335  -0.23561   0. 
 
 NAtoms=      2 NQM=        2 NQMF=       0 NMMI=      0 NMMIF=      0
                NMic=       0 NMicF=      0.
                    Isotopes and Nuclear Properties:
 (Nuclear quadrupole moments (NQMom) in fm**2, nuclear magnetic moments (NMagM)
  in nuclear magnetons)

  Atom         1           2
 IAtWgt=          14          14
 AtmWgt=  14.0030740  14.0030740
 NucSpn=           2           2
 AtZEff=   0.0000000   0.0000000
 NQMom=    2.0440000   2.0440000
 NMagM=    0.4037610   0.4037610
 AtZNuc=   7.0000000   7.0000000
 Leave Link  101 at Fri Sep 20 13:12:00 2019, MaxMem=   134217728 cpu:         0.1
 (Enter /soft/gaussian/09-e.01/g09/l103.exe)

 GradGradGradGradGradGradGradGradGradGradGradGradGradGradGradGradGradGrad
 Berny optimization.
 Initialization pass.
                           ----------------------------
                           !    Initial Parameters    !
                           ! (Angstroms and Degrees)  !
 --------------------------                            --------------------------
 ! Name  Definition              Value          Derivative Info.                !
 --------------------------------------------------------------------------------
 ! R1    R(1,2)                  1.12           estimate D2E/DX2                !
 --------------------------------------------------------------------------------
 Trust Radius=3.00D-01 FncErr=1.00D-07 GrdErr=1.00D-06
 Number of steps in this run=     20 maximum allowed number of steps=    100.
 GradGradGradGradGradGradGradGradGradGradGradGradGradGradGradGradGradGrad

 Leave Link  103 at Fri Sep 20 13:12:00 2019, MaxMem=   134217728 cpu:         0.0
 (Enter /soft/gaussian/09-e.01/g09/l202.exe)
                          Input orientation:                          
 ---------------------------------------------------------------------
 Center     Atomic      Atomic             Coordinates (Angstroms)
 Number     Number       Type             X           Y           Z
 ---------------------------------------------------------------------
      1          7           0       -2.400903   -0.161548    0.000000
      2          7           0       -1.283346   -0.235609    0.000000
 ---------------------------------------------------------------------
 Stoichiometry    N2
 Framework group  D*H[C*(N.N)]
 Deg. of freedom     1
 Full point group                 D*H     NOp   8
 Largest Abelian subgroup         D2H     NOp   8
 Largest concise Abelian subgroup C2      NOp   2
                         Standard orientation:                         
 ---------------------------------------------------------------------
 Center     Atomic      Atomic             Coordinates (Angstroms)
 Number     Number       Type             X           Y           Z
 ---------------------------------------------------------------------
      1          7           0        0.000000    0.000000    0.560004
      2          7           0        0.000000    0.000000   -0.560004
 ---------------------------------------------------------------------
 Rotational constants (GHZ):      0.0000000     57.5415220     57.5415220
 Leave Link  202 at Fri Sep 20 13:12:00 2019, MaxMem=   134217728 cpu:         0.0
 (Enter /soft/gaussian/09-e.01/g09/l301.exe)
 Standard basis: 6-31G (6D, 7F)
 Ernie: Thresh=  0.10000D-02 Tol=  0.10000D-05 Strict=F.
 There are     5 symmetry adapted cartesian basis functions of AG  symmetry.
 There are     0 symmetry adapted cartesian basis functions of B1G symmetry.
 There are     2 symmetry adapted cartesian basis functions of B2G symmetry.
 There are     2 symmetry adapted cartesian basis functions of B3G symmetry.
 There are     0 symmetry adapted cartesian basis functions of AU  symmetry.
 There are     5 symmetry adapted cartesian basis functions of B1U symmetry.
 There are     2 symmetry adapted cartesian basis functions of B2U symmetry.
 There are     2 symmetry adapted cartesian basis functions of B3U symmetry.
 There are     5 symmetry adapted basis functions of AG  symmetry.
 There are     0 symmetry adapted basis functions of B1G symmetry.
 There are     2 symmetry adapted basis functions of B2G symmetry.
 There are     2 symmetry adapted basis functions of B3G symmetry.
 There are     0 symmetry adapted basis functions of AU  symmetry.
 There are     5 symmetry adapted basis functions of B1U symmetry.
 There are     2 symmetry adapted basis functions of B2U symmetry.
 There are     2 symmetry adapted basis functions of B3U symmetry.
    18 basis functions,    44 primitive gaussians,    18 cartesian basis functions
     7 alpha electrons        7 beta electrons
       nuclear repulsion energy        23.1513318383 Hartrees.
 IExCor=  402 DFT=T Ex+Corr=B3LYP ExCW=0 ScaHFX=  0.200000
 ScaDFX=  0.800000  0.720000  1.000000  0.810000 ScalE2=  1.000000  1.000000
 IRadAn=      0 IRanWt=     -1 IRanGd=            0 ICorTp=0 IEmpDi=  4
 NAtoms=    2 NActive=    2 NUniq=    1 SFac= 4.00D+00 NAtFMM=   60 NAOKFM=F Big=F
 Integral buffers will be    131072 words long.
 Raffenetti 2 integral format.
 Two-electron integral symmetry is turned on.
 Leave Link  301 at Fri Sep 20 13:12:00 2019, MaxMem=   134217728 cpu:         0.0
 (Enter /soft/gaussian/09-e.01/g09/l302.exe)
 NPDir=0 NMtPBC=     1 NCelOv=     1 NCel=       1 NClECP=     1 NCelD=      1
         NCelK=      1 NCelE2=     1 NClLst=     1 CellRange=     0.0.
 One-electron integrals computed using PRISM.
 One-electron integral symmetry used in STVInt
 NBasis=    18 RedAO= T EigKep=  1.19D-02  NBF=     5     0     2     2     0     5     2     2
 NBsUse=    18 1.00D-06 EigRej= -1.00D+00 NBFU=     5     0     2     2     0     5     2     2
 Precomputing XC quadrature grid using
 IXCGrd= 4 IRadAn=           0 IRanWt=          -1 IRanGd=           0 AccXCQ= 0.00D+00.
 Generated NRdTot=       0 NPtTot=           0 NUsed=           0 NTot=          32
 NSgBfM=    18    18    18    18    18 MxSgAt=     2 MxSgA2=     2.
 Leave Link  302 at Fri Sep 20 13:12:01 2019, MaxMem=   134217728 cpu:         0.1
 (Enter /soft/gaussian/09-e.01/g09/l303.exe)
 DipDrv:  MaxL=1.
 Leave Link  303 at Fri Sep 20 13:12:01 2019, MaxMem=   134217728 cpu:         0.0
 (Enter /soft/gaussian/09-e.01/g09/l401.exe)
 ExpMin= 2.12D-01 ExpMax= 4.17D+03 ExpMxC= 6.27D+02 IAcc=1 IRadAn=         1 AccDes= 0.00D+00
 Harris functional with IExCor=  402 and IRadAn=       1 diagonalized for initial guess.
 HarFok:  IExCor=  402 AccDes= 0.00D+00 IRadAn=         1 IDoV= 1 UseB2=F ITyADJ=14
 ICtDFT=  3500011 ScaDFX=  1.000000  1.000000  1.000000  1.000000
 FoFCou: FMM=F IPFlag=           0 FMFlag=      100000 FMFlg1=           0
         NFxFlg=           0 DoJE=T BraDBF=F KetDBF=T FulRan=T
         wScrn=  0.000000 ICntrl=     500 IOpCl=  0 I1Cent=   200000004 NGrid=           0
         NMat0=    1 NMatS0=      1 NMatT0=    0 NMatD0=    1 NMtDS0=    0 NMtDT0=    0
 Petite list used in FoFCou.
 Harris En= -109.450436840756    
 JPrj=0 DoOrth=F DoCkMO=F.
 Initial guess orbital symmetries:
       Occupied  (SGG) (SGU) (SGG) (SGU) (PIU) (PIU) (SGG)
       Virtual   (PIG) (PIG) (SGU) (SGG) (PIU) (PIU) (SGG) (PIG)
                 (PIG) (SGU) (SGU)
 The electronic state of the initial guess is 1-SGG.
 Leave Link  401 at Fri Sep 20 13:12:01 2019, MaxMem=   134217728 cpu:         0.1
 (Enter /soft/gaussian/09-e.01/g09/l502.exe)
 Closed shell SCF:
 Using DIIS extrapolation, IDIIS=  1040.
 Integral symmetry usage will be decided dynamically.
 Keep R1 ints in memory in symmetry-blocked form, NReq=882785.
 IVT=        7633 IEndB=        7633 NGot=   134217728 MDV=   134206388
 LenX=   134206388 LenY=   134205506
 Requested convergence on RMS density matrix=1.00D-08 within  64 cycles.
 Requested convergence on MAX density matrix=1.00D-06.
 Requested convergence on             energy=1.00D-06.
 No special actions if energy rises.
 FoFCou: FMM=F IPFlag=           0 FMFlag=           0 FMFlg1=           0
         NFxFlg=           0 DoJE=F BraDBF=F KetDBF=F FulRan=T
         wScrn=  0.000000 ICntrl=     600 IOpCl=  0 I1Cent=           0 NGrid=           0
         NMat0=    1 NMatS0=    171 NMatT0=    0 NMatD0=    1 NMtDS0=    0 NMtDT0=    0
 Petite list used in FoFCou.
 Integral accuracy reduced to 1.0D-05 until final iterations.

 Cycle   1  Pass 0  IDiag  1:
 E= -109.468602927452    
 DIIS: error= 1.17D-02 at cycle   1 NSaved=   1.
 NSaved= 1 IEnMin= 1 EnMin= -109.468602927452     IErMin= 1 ErrMin= 1.17D-02
 ErrMax= 1.17D-02  0.00D+00 EMaxC= 1.00D-01 BMatC= 2.23D-03 BMatP= 2.23D-03
 IDIUse=3 WtCom= 8.83D-01 WtEn= 1.17D-01
 Coeff-Com:  0.100D+01
 Coeff-En:   0.100D+01
 Coeff:      0.100D+01
 Gap=     0.378 Goal=   None    Shift=    0.000
 GapD=    0.378 DampG=1.000 DampE=0.500 DampFc=0.5000 IDamp=-1.
 Damping current iteration by 5.00D-01
 RMSDP=1.29D-02 MaxDP=1.02D-01              OVMax= 1.89D-02

 Cycle   2  Pass 0  IDiag  1:
 E= -109.469850353133     Delta-E=       -0.001247425681 Rises=F Damp=T
 DIIS: error= 5.38D-03 at cycle   2 NSaved=   2.
 NSaved= 2 IEnMin= 2 EnMin= -109.469850353133     IErMin= 2 ErrMin= 5.38D-03
 ErrMax= 5.38D-03  0.00D+00 EMaxC= 1.00D-01 BMatC= 4.72D-04 BMatP= 2.23D-03
 IDIUse=3 WtCom= 9.46D-01 WtEn= 5.38D-02
 Coeff-Com: -0.722D+00 0.172D+01
 Coeff-En:   0.000D+00 0.100D+01
 Coeff:     -0.683D+00 0.168D+01
 Gap=     0.380 Goal=   None    Shift=    0.000
 RMSDP=6.17D-03 MaxDP=4.45D-02 DE=-1.25D-03 OVMax= 2.33D-03

 Cycle   3  Pass 0  IDiag  1:
 E= -109.471016116455     Delta-E=       -0.001165763323 Rises=F Damp=F
 DIIS: error= 1.04D-03 at cycle   3 NSaved=   3.
 NSaved= 3 IEnMin= 3 EnMin= -109.471016116455     IErMin= 3 ErrMin= 1.04D-03
 ErrMax= 1.04D-03  0.00D+00 EMaxC= 1.00D-01 BMatC= 1.68D-05 BMatP= 4.72D-04
 IDIUse=3 WtCom= 9.90D-01 WtEn= 1.04D-02
 Coeff-Com: -0.244D+00 0.497D+00 0.746D+00
 Coeff-En:   0.000D+00 0.000D+00 0.100D+01
 Coeff:     -0.241D+00 0.492D+00 0.749D+00
 Gap=     0.380 Goal=   None    Shift=    0.000
 RMSDP=2.30D-04 MaxDP=8.83D-04 DE=-1.17D-03 OVMax= 6.16D-04

 Cycle   4  Pass 0  IDiag  1:
 E= -109.471033799430     Delta-E=       -0.000017682975 Rises=F Damp=F
 DIIS: error= 4.15D-05 at cycle   4 NSaved=   4.
 NSaved= 4 IEnMin= 4 EnMin= -109.471033799430     IErMin= 4 ErrMin= 4.15D-05
 ErrMax= 4.15D-05  0.00D+00 EMaxC= 1.00D-01 BMatC= 3.25D-08 BMatP= 1.68D-05
 IDIUse=1 WtCom= 1.00D+00 WtEn= 0.00D+00
 Coeff-Com: -0.325D-02 0.486D-02 0.492D-01 0.949D+00
 Coeff:     -0.325D-02 0.486D-02 0.492D-01 0.949D+00
 Gap=     0.380 Goal=   None    Shift=    0.000
 RMSDP=1.59D-05 MaxDP=8.77D-05 DE=-1.77D-05 OVMax= 5.53D-05

 Cycle   5  Pass 0  IDiag  1:
 E= -109.471033831869     Delta-E=       -0.000000032439 Rises=F Damp=F
 DIIS: error= 9.01D-07 at cycle   5 NSaved=   5.
 NSaved= 5 IEnMin= 5 EnMin= -109.471033831869     IErMin= 5 ErrMin= 9.01D-07
 ErrMax= 9.01D-07  0.00D+00 EMaxC= 1.00D-01 BMatC= 9.42D-12 BMatP= 3.25D-08
 IDIUse=1 WtCom= 1.00D+00 WtEn= 0.00D+00
 Coeff-Com:  0.454D-03-0.890D-03-0.278D-02-0.443D-01 0.105D+01
 Coeff:      0.454D-03-0.890D-03-0.278D-02-0.443D-01 0.105D+01
 Gap=     0.380 Goal=   None    Shift=    0.000
 RMSDP=2.99D-07 MaxDP=1.77D-06 DE=-3.24D-08 OVMax= 1.32D-06

 Initial convergence to 1.0D-05 achieved.  Increase integral accuracy.
 Cycle   6  Pass 1  IDiag  1:
 E= -109.471033884225     Delta-E=       -0.000000052355 Rises=F Damp=F
 DIIS: error= 1.61D-06 at cycle   1 NSaved=   1.
 NSaved= 1 IEnMin= 1 EnMin= -109.471033884225     IErMin= 1 ErrMin= 1.61D-06
 ErrMax= 1.61D-06  0.00D+00 EMaxC= 1.00D-01 BMatC= 3.10D-11 BMatP= 3.10D-11
 IDIUse=1 WtCom= 1.00D+00 WtEn= 0.00D+00
 Coeff-Com:  0.100D+01
 Coeff:      0.100D+01
 Gap=     0.380 Goal=   None    Shift=    0.000
 RMSDP=2.99D-07 MaxDP=1.77D-06 DE=-5.24D-08 OVMax= 1.89D-06

 Cycle   7  Pass 1  IDiag  1:
 E= -109.471033884249     Delta-E=       -0.000000000024 Rises=F Damp=F
 DIIS: error= 5.67D-08 at cycle   2 NSaved=   2.
 NSaved= 2 IEnMin= 2 EnMin= -109.471033884249     IErMin= 2 ErrMin= 5.67D-08
 ErrMax= 5.67D-08  0.00D+00 EMaxC= 1.00D-01 BMatC= 3.23D-14 BMatP= 3.10D-11
 IDIUse=1 WtCom= 1.00D+00 WtEn= 0.00D+00
 Coeff-Com: -0.180D-01 0.102D+01
 Coeff:     -0.180D-01 0.102D+01
 Gap=     0.380 Goal=   None    Shift=    0.000
 RMSDP=7.14D-08 MaxDP=5.49D-07 DE=-2.45D-11 OVMax= 2.91D-10

 Cycle   8  Pass 1  IDiag  1:
 E= -109.471033884249     Delta-E=       -0.000000000000 Rises=F Damp=F
 DIIS: error= 3.78D-09 at cycle   3 NSaved=   3.
 NSaved= 3 IEnMin= 3 EnMin= -109.471033884249     IErMin= 3 ErrMin= 3.78D-09
 ErrMax= 3.78D-09  0.00D+00 EMaxC= 1.00D-01 BMatC= 3.05D-16 BMatP= 3.23D-14
 IDIUse=1 WtCom= 1.00D+00 WtEn= 0.00D+00
 Coeff-Com: -0.200D-02 0.540D-01 0.948D+00
 Coeff:     -0.200D-02 0.540D-01 0.948D+00
 Gap=     0.380 Goal=   None    Shift=    0.000
 RMSDP=3.53D-09 MaxDP=2.45D-08 DE=-2.84D-14 OVMax= 5.39D-09

 SCF Done:  E(RB3LYP) =  -109.471033884     A.U. after    8 cycles
            NFock=  8  Conv=0.35D-08     -V/T= 2.0063
 KE= 1.087887624282D+02 PE=-3.020766040747D+02 EE= 6.066547592395D+01
 Leave Link  502 at Fri Sep 20 13:12:02 2019, MaxMem=   134217728 cpu:         0.1
 (Enter /soft/gaussian/09-e.01/g09/l508.exe)
 QCSCF skips out because SCF is already converged.
 Leave Link  508 at Fri Sep 20 13:12:02 2019, MaxMem=   134217728 cpu:         0.0
 (Enter /soft/gaussian/09-e.01/g09/l601.exe)
 Copying SCF densities to generalized density rwf, IOpCl= 0 IROHF=0.

 **********************************************************************

            Population analysis using the SCF density.

 **********************************************************************

 Orbital symmetries:
       Occupied  (SGG) (SGU) (SGG) (SGU) (PIU) (PIU) (SGG)
       Virtual   (PIG) (PIG) (SGU) (SGG) (PIU) (PIU) (SGG) (PIG)
                 (PIG) (SGU) (SGU)
 The electronic state is 1-SGG.
 Alpha  occ. eigenvalues --  -14.46054 -14.45927  -1.16492  -0.55096  -0.47117
 Alpha  occ. eigenvalues --   -0.47117  -0.42256
 Alpha virt. eigenvalues --   -0.04212  -0.04212   0.40541   0.60760   0.61311
 Alpha virt. eigenvalues --    0.61311   0.72990   0.74428   0.74428   0.82215
 Alpha virt. eigenvalues --    1.28008
          Condensed to atoms (all electrons):
               1          2
     1  N    6.754812   0.245188
     2  N    0.245188   6.754812
 Mulliken charges:
               1
     1  N   -0.000000
     2  N    0.000000
 Sum of Mulliken charges =  -0.00000
 Mulliken charges with hydrogens summed into heavy atoms:
               1
     1  N   -0.000000
     2  N    0.000000
 Electronic spatial extent (au):  <R**2>=             39.8383
 Charge=              0.0000 electrons
 Dipole moment (field-independent basis, Debye):
    X=             -0.0000    Y=              0.0000    Z=              0.0000  Tot=              0.0000
 Quadrupole moment (field-independent basis, Debye-Ang):
   XX=            -10.0799   YY=            -10.0799   ZZ=            -12.3358
   XY=              0.0000   XZ=              0.0000   YZ=             -0.0000
 Traceless Quadrupole moment (field-independent basis, Debye-Ang):
   XX=              0.7520   YY=              0.7520   ZZ=             -1.5040
   XY=              0.0000   XZ=              0.0000   YZ=             -0.0000
 Octapole moment (field-independent basis, Debye-Ang**2):
  XXX=             -0.0000  YYY=             -0.0000  ZZZ=              0.0000  XYY=             -0.0000
  XXY=             -0.0000  XXZ=              0.0000  XZZ=             -0.0000  YZZ=             -0.0000
  YYZ=              0.0000  XYZ=             -0.0000
 Hexadecapole moment (field-independent basis, Debye-Ang**3):
 XXXX=             -8.0706 YYYY=             -8.0706 ZZZZ=            -31.2658 XXXY=              0.0000
 XXXZ=              0.0000 YYYX=              0.0000 YYYZ=             -0.0000 ZZZX=              0.0000
 ZZZY=             -0.0000 XXYY=             -2.6902 XXZZ=             -6.2211 YYZZ=             -6.2211
 XXYZ=             -0.0000 YYXZ=              0.0000 ZZXY=              0.0000
 N-N= 2.315133183831D+01 E-N=-3.020766042421D+02  KE= 1.087887624282D+02
 Symmetry AG   KE= 5.318159056219D+01
 Symmetry B1G  KE= 0.000000000000D+00
 Symmetry B2G  KE= 8.333999165543D-33
 Symmetry B3G  KE= 1.666849279592D-32
 Symmetry AU   KE= 0.000000000000D+00
 Symmetry B1U  KE= 4.879114566102D+01
 Symmetry B2U  KE= 3.408013102474D+00
 Symmetry B3U  KE= 3.408013102474D+00
 No NMR shielding tensors so no spin-rotation constants.
 Leave Link  601 at Fri Sep 20 13:12:02 2019, MaxMem=   134217728 cpu:         0.1
 (Enter /soft/gaussian/09-e.01/g09/l701.exe)
 Compute integral first derivatives.
 ... and contract with generalized density number  0.
 Leave Link  701 at Fri Sep 20 13:12:03 2019, MaxMem=   134217728 cpu:         0.1
 (Enter /soft/gaussian/09-e.01/g09/l702.exe)
 L702 exits ... SP integral derivatives will be done elsewhere.
 Leave Link  702 at Fri Sep 20 13:12:03 2019, MaxMem=   134217728 cpu:         0.0
 (Enter /soft/gaussian/09-e.01/g09/l703.exe)
 Compute integral first derivatives, UseDBF=F ICtDFT=           0.
 Integral derivatives from FoFJK, PRISM(SPDF).
 Calling FoFJK, ICntrl=      2127 FMM=F ISym2X=1 I1Cent= 0 IOpClX= 0 NMat=1 NMatS=1 NMatT=0.
 FoFJK:  IHMeth= 1 ICntrl=    2127 DoSepK=F KAlg= 0 I1Cent=   0 FoldK=F
 IRaf=         0 NMat=   1 IRICut=       1 DoRegI=T DoRafI=F ISym2E= 1.
 FoFCou: FMM=F IPFlag=           0 FMFlag=      100000 FMFlg1=         800
         NFxFlg=           0 DoJE=F BraDBF=F KetDBF=F FulRan=T
         wScrn=  0.000000 ICntrl=    2127 IOpCl=  0 I1Cent=           0 NGrid=           0
         NMat0=    1 NMatS0=      1 NMatT0=    0 NMatD0=    1 NMtDS0=    0 NMtDT0=    0
 Petite list used in FoFCou.
 Leave Link  703 at Fri Sep 20 13:12:03 2019, MaxMem=   134217728 cpu:         0.1
 (Enter /soft/gaussian/09-e.01/g09/l716.exe)
 Dipole        =-1.97215226D-31 7.39557099D-32 8.88178420D-16
 ***** Axes restored to original set *****
 -------------------------------------------------------------------
 Center     Atomic                   Forces (Hartrees/Bohr)
 Number     Number              X              Y              Z
 -------------------------------------------------------------------
      1        7           0.004510196   -0.000298889    0.000000000
      2        7          -0.004510196    0.000298889   -0.000000000
 -------------------------------------------------------------------
 Cartesian Forces:  Max     0.004510196 RMS     0.002609674
 Leave Link  716 at Fri Sep 20 13:12:03 2019, MaxMem=   134217728 cpu:         0.0
 (Enter /soft/gaussian/09-e.01/g09/l103.exe)

 GradGradGradGradGradGradGradGradGradGradGradGradGradGradGradGradGradGrad
 Berny optimization.
 FormGI is forming the generalized inverse of G from B-inverse, IUseBI=4.
 Internal  Forces:  Max     0.004520088 RMS     0.004520088
 Search for a local minimum.
 Step number   1 out of a maximum of   20
 All quantities printed in internal units (Hartrees-Bohrs-Radians)
 RMS Force = .45201D-02 SwitMx=.10000D-02 MixMth= 1
 Mixed Optimization -- RFO/linear search
 Second derivative matrix not updated -- first step.
 The second derivative matrix:
                          R1
           R1           1.57990
 ITU=  0
     Eigenvalues ---    1.57990
 RFO step:  Lambda=-1.29318346D-05 EMin= 1.57990200D+00
 Linear search not attempted -- first point.
 Iteration  1 RMS(Cart)=  0.00202301 RMS(Int)=  0.00000000
 Iteration  2 RMS(Cart)=  0.00000000 RMS(Int)=  0.00000000
 ITry= 1 IFail=0 DXMaxC= 1.43D-03 DCOld= 1.00D+10 DXMaxT= 3.00D-01 DXLimC= 3.00D+00 Rises=F
 ClnCor:  largest displacement from symmetrization is 4.48D-16 for atom     2.
 Variable       Old X    -DE/DX   Delta X   Delta X   Delta X     New X
                                 (Linear)    (Quad)   (Total)
    R1        2.11651  -0.00452   0.00000  -0.00286  -0.00286   2.11365
         Item               Value     Threshold  Converged?
 Maximum Force            0.004520     0.000450     NO 
 RMS     Force            0.004520     0.000300     NO 
 Maximum Displacement     0.001427     0.001800     YES
 RMS     Displacement     0.002023     0.001200     NO 
 Predicted change in Energy=-6.465970D-06
 Lowest energy point so far.  Saving SCF results.
 GradGradGradGradGradGradGradGradGradGradGradGradGradGradGradGradGradGrad

 Leave Link  103 at Fri Sep 20 13:12:03 2019, MaxMem=   134217728 cpu:         0.0
 (Enter /soft/gaussian/09-e.01/g09/l202.exe)
                          Input orientation:                          
 ---------------------------------------------------------------------
 Center     Atomic      Atomic             Coordinates (Angstroms)
 Number     Number       Type             X           Y           Z
 ---------------------------------------------------------------------
      1          7           0       -2.400148   -0.161599   -0.000000
      2          7           0       -1.284101   -0.235559    0.000000
 ---------------------------------------------------------------------
 Stoichiometry    N2
 Framework group  D*H[C*(N.N)]
 Deg. of freedom     1
 Full point group                 D*H     NOp   8
 RotChk:  IX=0 Diff= 2.86D-16
 Largest Abelian subgroup         D2H     NOp   8
 Largest concise Abelian subgroup C2      NOp   2
                         Standard orientation:                         
 ---------------------------------------------------------------------
 Center     Atomic      Atomic             Coordinates (Angstroms)
 Number     Number       Type             X           Y           Z
 ---------------------------------------------------------------------
      1          7           0        0.000000    0.000000    0.559247
      2          7           0        0.000000    0.000000   -0.559247
 ---------------------------------------------------------------------
 Rotational constants (GHZ):      0.0000000     57.6974004     57.6974004
 Leave Link  202 at Fri Sep 20 13:12:03 2019, MaxMem=   134217728 cpu:         0.0
 (Enter /soft/gaussian/09-e.01/g09/l301.exe)
 Standard basis: 6-31G (6D, 7F)
 Ernie: Thresh=  0.10000D-02 Tol=  0.10000D-05 Strict=F.
 There are     5 symmetry adapted cartesian basis functions of AG  symmetry.
 There are     0 symmetry adapted cartesian basis functions of B1G symmetry.
 There are     2 symmetry adapted cartesian basis functions of B2G symmetry.
 There are     2 symmetry adapted cartesian basis functions of B3G symmetry.
 There are     0 symmetry adapted cartesian basis functions of AU  symmetry.
 There are     5 symmetry adapted cartesian basis functions of B1U symmetry.
 There are     2 symmetry adapted cartesian basis functions of B2U symmetry.
 There are     2 symmetry adapted cartesian basis functions of B3U symmetry.
 There are     5 symmetry adapted basis functions of AG  symmetry.
 There are     0 symmetry adapted basis functions of B1G symmetry.
 There are     2 symmetry adapted basis functions of B2G symmetry.
 There are     2 symmetry adapted basis functions of B3G symmetry.
 There are     0 symmetry adapted basis functions of AU  symmetry.
 There are     5 symmetry adapted basis functions of B1U symmetry.
 There are     2 symmetry adapted basis functions of B2U symmetry.
 There are     2 symmetry adapted basis functions of B3U symmetry.
    18 basis functions,    44 primitive gaussians,    18 cartesian basis functions
     7 alpha electrons        7 beta electrons
       nuclear repulsion energy        23.1826687757 Hartrees.
 IExCor=  402 DFT=T Ex+Corr=B3LYP ExCW=0 ScaHFX=  0.200000
 ScaDFX=  0.800000  0.720000  1.000000  0.810000 ScalE2=  1.000000  1.000000
 IRadAn=      0 IRanWt=     -1 IRanGd=            0 ICorTp=0 IEmpDi=  4
 NAtoms=    2 NActive=    2 NUniq=    1 SFac= 4.00D+00 NAtFMM=   60 NAOKFM=F Big=F
 Integral buffers will be    131072 words long.
 Raffenetti 2 integral format.
 Two-electron integral symmetry is turned on.
 Leave Link  301 at Fri Sep 20 13:12:03 2019, MaxMem=   134217728 cpu:         0.0
 (Enter /soft/gaussian/09-e.01/g09/l302.exe)
 NPDir=0 NMtPBC=     1 NCelOv=     1 NCel=       1 NClECP=     1 NCelD=      1
         NCelK=      1 NCelE2=     1 NClLst=     1 CellRange=     0.0.
 One-electron integrals computed using PRISM.
 One-electron integral symmetry used in STVInt
 NBasis=    18 RedAO= T EigKep=  1.18D-02  NBF=     5     0     2     2     0     5     2     2
 NBsUse=    18 1.00D-06 EigRej= -1.00D+00 NBFU=     5     0     2     2     0     5     2     2
 Precomputing XC quadrature grid using
 IXCGrd= 4 IRadAn=           0 IRanWt=          -1 IRanGd=           0 AccXCQ= 0.00D+00.
 Generated NRdTot=       0 NPtTot=           0 NUsed=           0 NTot=          32
 NSgBfM=    18    18    18    18    18 MxSgAt=     2 MxSgA2=     2.
 Leave Link  302 at Fri Sep 20 13:12:03 2019, MaxMem=   134217728 cpu:         0.1
 (Enter /soft/gaussian/09-e.01/g09/l303.exe)
 DipDrv:  MaxL=1.
 Leave Link  303 at Fri Sep 20 13:12:03 2019, MaxMem=   134217728 cpu:         0.0
 (Enter /soft/gaussian/09-e.01/g09/l401.exe)
 Initial guess from the checkpoint file:  "/scratch/kmoore/Gau-133085.chk"
 B after Tr=    -0.000000   -0.000000    0.000000
         Rot=    1.000000   -0.000000    0.000000    0.000000 Ang=   0.00 deg.
 Guess basis will be translated and rotated to current coordinates.
 JPrj=2 DoOrth=T DoCkMO=T.
 Initial guess orbital symmetries:
       Occupied  (SGG) (SGU) (SGG) (SGU) (PIU) (PIU) (SGG)
       Virtual   (SGG) (SGG) (PIG) (PIG) (PIG) (PIG) (SGU) (SGU)
                 (SGU) (PIU) (PIU)
 The electronic state of the initial guess is 1-SGG.
 Leave Link  401 at Fri Sep 20 13:12:04 2019, MaxMem=   134217728 cpu:         0.1
 (Enter /soft/gaussian/09-e.01/g09/l502.exe)
 Closed shell SCF:
 Using DIIS extrapolation, IDIIS=  1040.
 Integral symmetry usage will be decided dynamically.
 Keep R1 ints in memory in symmetry-blocked form, NReq=882785.
 IVT=        7633 IEndB=        7633 NGot=   134217728 MDV=   134206388
 LenX=   134206388 LenY=   134205506
 Requested convergence on RMS density matrix=1.00D-08 within  64 cycles.
 Requested convergence on MAX density matrix=1.00D-06.
 Requested convergence on             energy=1.00D-06.
 No special actions if energy rises.
 FoFCou: FMM=F IPFlag=           0 FMFlag=           0 FMFlg1=           0
         NFxFlg=           0 DoJE=F BraDBF=F KetDBF=F FulRan=T
         wScrn=  0.000000 ICntrl=     600 IOpCl=  0 I1Cent=           0 NGrid=           0
         NMat0=    1 NMatS0=    171 NMatT0=    0 NMatD0=    1 NMtDS0=    0 NMtDT0=    0
 Petite list used in FoFCou.

 Cycle   1  Pass 1  IDiag  1:
 E= -109.471039060714    
 DIIS: error= 2.65D-04 at cycle   1 NSaved=   1.
 NSaved= 1 IEnMin= 1 EnMin= -109.471039060714     IErMin= 1 ErrMin= 2.65D-04
 ErrMax= 2.65D-04  0.00D+00 EMaxC= 1.00D-01 BMatC= 1.41D-06 BMatP= 1.41D-06
 IDIUse=3 WtCom= 9.97D-01 WtEn= 2.65D-03
 Coeff-Com:  0.100D+01
 Coeff-En:   0.100D+01
 Coeff:      0.100D+01
 Gap=     0.415 Goal=   None    Shift=    0.000
 RMSDP=9.28D-05 MaxDP=3.22D-04              OVMax= 1.79D-04

 Cycle   2  Pass 1  IDiag  1:
 E= -109.471040661249     Delta-E=       -0.000001600535 Rises=F Damp=F
 DIIS: error= 9.96D-05 at cycle   2 NSaved=   2.
 NSaved= 2 IEnMin= 2 EnMin= -109.471040661249     IErMin= 2 ErrMin= 9.96D-05
 ErrMax= 9.96D-05  0.00D+00 EMaxC= 1.00D-01 BMatC= 2.00D-07 BMatP= 1.41D-06
 IDIUse=1 WtCom= 1.00D+00 WtEn= 0.00D+00
 Coeff-Com:  0.219D+00 0.781D+00
 Coeff:      0.219D+00 0.781D+00
 Gap=     0.381 Goal=   None    Shift=    0.000
 RMSDP=3.16D-05 MaxDP=1.49D-04 DE=-1.60D-06 OVMax= 1.04D-04

 Cycle   3  Pass 1  IDiag  1:
 E= -109.471040852614     Delta-E=       -0.000000191365 Rises=F Damp=F
 DIIS: error= 2.82D-05 at cycle   3 NSaved=   3.
 NSaved= 3 IEnMin= 3 EnMin= -109.471040852614     IErMin= 3 ErrMin= 2.82D-05
 ErrMax= 2.82D-05  0.00D+00 EMaxC= 1.00D-01 BMatC= 1.23D-08 BMatP= 2.00D-07
 IDIUse=1 WtCom= 1.00D+00 WtEn= 0.00D+00
 Coeff-Com: -0.169D-01 0.179D+00 0.837D+00
 Coeff:     -0.169D-01 0.179D+00 0.837D+00
 Gap=     0.381 Goal=   None    Shift=    0.000
 RMSDP=5.92D-06 MaxDP=2.09D-05 DE=-1.91D-07 OVMax= 1.04D-05

 Cycle   4  Pass 1  IDiag  1:
 E= -109.471040865644     Delta-E=       -0.000000013030 Rises=F Damp=F
 DIIS: error= 3.00D-07 at cycle   4 NSaved=   4.
 NSaved= 4 IEnMin= 4 EnMin= -109.471040865644     IErMin= 4 ErrMin= 3.00D-07
 ErrMax= 3.00D-07  0.00D+00 EMaxC= 1.00D-01 BMatC= 1.68D-12 BMatP= 1.23D-08
 IDIUse=1 WtCom= 1.00D+00 WtEn= 0.00D+00
 Coeff-Com: -0.487D-03-0.191D-02 0.483D-02 0.998D+00
 Coeff:     -0.487D-03-0.191D-02 0.483D-02 0.998D+00
 Gap=     0.381 Goal=   None    Shift=    0.000
 RMSDP=1.41D-07 MaxDP=1.33D-06 DE=-1.30D-08 OVMax= 2.59D-07

 Cycle   5  Pass 1  IDiag  1:
 E= -109.471040865646     Delta-E=       -0.000000000002 Rises=F Damp=F
 DIIS: error= 1.10D-08 at cycle   5 NSaved=   5.
 NSaved= 5 IEnMin= 5 EnMin= -109.471040865646     IErMin= 5 ErrMin= 1.10D-08
 ErrMax= 1.10D-08  0.00D+00 EMaxC= 1.00D-01 BMatC= 2.62D-15 BMatP= 1.68D-12
 IDIUse=1 WtCom= 1.00D+00 WtEn= 0.00D+00
 Coeff-Com:  0.274D-04-0.381D-03-0.131D-02 0.560D-02 0.996D+00
 Coeff:      0.274D-04-0.381D-03-0.131D-02 0.560D-02 0.996D+00
 Gap=     0.381 Goal=   None    Shift=    0.000
 RMSDP=6.57D-09 MaxDP=4.43D-08 DE=-1.59D-12 OVMax= 1.96D-08

 SCF Done:  E(RB3LYP) =  -109.471040866     A.U. after    5 cycles
            NFock=  5  Conv=0.66D-08     -V/T= 2.0062
 KE= 1.087964795495D+02 PE=-3.021442330683D+02 EE= 6.069404387753D+01
 Leave Link  502 at Fri Sep 20 13:12:04 2019, MaxMem=   134217728 cpu:         0.1
 (Enter /soft/gaussian/09-e.01/g09/l508.exe)
 QCSCF skips out because SCF is already converged.
 Leave Link  508 at Fri Sep 20 13:12:04 2019, MaxMem=   134217728 cpu:         0.0
 (Enter /soft/gaussian/09-e.01/g09/l701.exe)
 Compute integral first derivatives.
 ... and contract with generalized density number  0.
 Leave Link  701 at Fri Sep 20 13:12:04 2019, MaxMem=   134217728 cpu:         0.1
 (Enter /soft/gaussian/09-e.01/g09/l702.exe)
 L702 exits ... SP integral derivatives will be done elsewhere.
 Leave Link  702 at Fri Sep 20 13:12:04 2019, MaxMem=   134217728 cpu:         0.0
 (Enter /soft/gaussian/09-e.01/g09/l703.exe)
 Compute integral first derivatives, UseDBF=F ICtDFT=           0.
 Integral derivatives from FoFJK, PRISM(SPDF).
 Calling FoFJK, ICntrl=      2127 FMM=F ISym2X=1 I1Cent= 0 IOpClX= 0 NMat=1 NMatS=1 NMatT=0.
 FoFJK:  IHMeth= 1 ICntrl=    2127 DoSepK=F KAlg= 0 I1Cent=   0 FoldK=F
 IRaf=         0 NMat=   1 IRICut=       1 DoRegI=T DoRafI=F ISym2E= 1.
 FoFCou: FMM=F IPFlag=           0 FMFlag=      100000 FMFlg1=         800
         NFxFlg=           0 DoJE=F BraDBF=F KetDBF=F FulRan=T
         wScrn=  0.000000 ICntrl=    2127 IOpCl=  0 I1Cent=           0 NGrid=           0
         NMat0=    1 NMatS0=      1 NMatT0=    0 NMatD0=    1 NMtDS0=    0 NMtDT0=    0
 Petite list used in FoFCou.
 Leave Link  703 at Fri Sep 20 13:12:04 2019, MaxMem=   134217728 cpu:         0.1
 (Enter /soft/gaussian/09-e.01/g09/l716.exe)
 Dipole        =-3.94430453D-31-8.01186857D-32 0.00000000D+00
 ***** Axes restored to original set *****
 -------------------------------------------------------------------
 Center     Atomic                   Forces (Hartrees/Bohr)
 Number     Number              X              Y              Z
 -------------------------------------------------------------------
      1        7           0.000351930   -0.000023322    0.000000000
      2        7          -0.000351930    0.000023322   -0.000000000
 -------------------------------------------------------------------
 Cartesian Forces:  Max     0.000351930 RMS     0.000203633
 Leave Link  716 at Fri Sep 20 13:12:04 2019, MaxMem=   134217728 cpu:         0.0
 (Enter /soft/gaussian/09-e.01/g09/l103.exe)

 GradGradGradGradGradGradGradGradGradGradGradGradGradGradGradGradGradGrad
 Berny optimization.
 Using GEDIIS/GDIIS optimizer.
 Red2BG is reusing G-inverse.
 Internal  Forces:  Max     0.000352702 RMS     0.000352702
 Search for a local minimum.
 Step number   2 out of a maximum of   20
 All quantities printed in internal units (Hartrees-Bohrs-Radians)
 RMS Force = .35270D-03 SwitMx=.10000D-02 MixMth= 2
 Mixed Optimization -- En-DIIS/RFO-DIIS
 Update second derivatives using D2CorX and points    1    2
 DE= -6.98D-06 DEPred=-6.47D-06 R= 1.08D+00
 TightC=F SS=  1.41D+00  RLast= 2.86D-03 DXNew= 5.0454D-01 8.5829D-03
 Trust test= 1.08D+00 RLast= 2.86D-03 DXMaxT set to 3.00D-01
 The second derivative matrix:
                          R1
           R1           1.45663
 ITU=  1  0
 Use linear search instead of GDIIS.
     Eigenvalues ---    1.45663
 RFO step:  Lambda= 0.00000000D+00 EMin= 1.45663422D+00
 Quartic linear search produced a step of  0.08413.
 Iteration  1 RMS(Cart)=  0.00017020 RMS(Int)=  0.00000000
 Iteration  2 RMS(Cart)=  0.00000000 RMS(Int)=  0.00000000
 ITry= 1 IFail=0 DXMaxC= 1.20D-04 DCOld= 1.00D+10 DXMaxT= 3.00D-01 DXLimC= 3.00D+00 Rises=F
 ClnCor:  largest displacement from symmetrization is 5.55D-17 for atom     2.
 Variable       Old X    -DE/DX   Delta X   Delta X   Delta X     New X
                                 (Linear)    (Quad)   (Total)
    R1        2.11365  -0.00035  -0.00024   0.00000  -0.00024   2.11341
         Item               Value     Threshold  Converged?
 Maximum Force            0.000353     0.000450     YES
 RMS     Force            0.000353     0.000300     NO 
 Maximum Displacement     0.000120     0.001800     YES
 RMS     Displacement     0.000170     0.001200     YES
 Predicted change in Energy=-4.269931D-08
 Lowest energy point so far.  Saving SCF results.
 GradGradGradGradGradGradGradGradGradGradGradGradGradGradGradGradGradGrad

 Leave Link  103 at Fri Sep 20 13:12:04 2019, MaxMem=   134217728 cpu:         0.0
 (Enter /soft/gaussian/09-e.01/g09/l202.exe)
                          Input orientation:                          
 ---------------------------------------------------------------------
 Center     Atomic      Atomic             Coordinates (Angstroms)
 Number     Number       Type             X           Y           Z
 ---------------------------------------------------------------------
      1          7           0       -2.400084   -0.161603    0.000000
      2          7           0       -1.284165   -0.235554    0.000000
 ---------------------------------------------------------------------
 Stoichiometry    N2
 Framework group  D*H[C*(N.N)]
 Deg. of freedom     1
 Full point group                 D*H     NOp   8
 RotChk:  IX=0 Diff= 4.87D-16
 Largest Abelian subgroup         D2H     NOp   8
 Largest concise Abelian subgroup C2      NOp   2
                         Standard orientation:                         
 ---------------------------------------------------------------------
 Center     Atomic      Atomic             Coordinates (Angstroms)
 Number     Number       Type             X           Y           Z
 ---------------------------------------------------------------------
      1          7           0        0.000000    0.000000    0.559183
      2          7           0        0.000000   -0.000000   -0.559183
 ---------------------------------------------------------------------
 Rotational constants (GHZ):      0.0000000     57.7105435     57.7105435
 Leave Link  202 at Fri Sep 20 13:12:04 2019, MaxMem=   134217728 cpu:         0.0
 (Enter /soft/gaussian/09-e.01/g09/l301.exe)
 Standard basis: 6-31G (6D, 7F)
 Ernie: Thresh=  0.10000D-02 Tol=  0.10000D-05 Strict=F.
 There are     5 symmetry adapted cartesian basis functions of AG  symmetry.
 There are     0 symmetry adapted cartesian basis functions of B1G symmetry.
 There are     2 symmetry adapted cartesian basis functions of B2G symmetry.
 There are     2 symmetry adapted cartesian basis functions of B3G symmetry.
 There are     0 symmetry adapted cartesian basis functions of AU  symmetry.
 There are     5 symmetry adapted cartesian basis functions of B1U symmetry.
 There are     2 symmetry adapted cartesian basis functions of B2U symmetry.
 There are     2 symmetry adapted cartesian basis functions of B3U symmetry.
 There are     5 symmetry adapted basis functions of AG  symmetry.
 There are     0 symmetry adapted basis functions of B1G symmetry.
 There are     2 symmetry adapted basis functions of B2G symmetry.
 There are     2 symmetry adapted basis functions of B3G symmetry.
 There are     0 symmetry adapted basis functions of AU  symmetry.
 There are     5 symmetry adapted basis functions of B1U symmetry.
 There are     2 symmetry adapted basis functions of B2U symmetry.
 There are     2 symmetry adapted basis functions of B3U symmetry.
    18 basis functions,    44 primitive gaussians,    18 cartesian basis functions
     7 alpha electrons        7 beta electrons
       nuclear repulsion energy        23.1853090554 Hartrees.
 IExCor=  402 DFT=T Ex+Corr=B3LYP ExCW=0 ScaHFX=  0.200000
 ScaDFX=  0.800000  0.720000  1.000000  0.810000 ScalE2=  1.000000  1.000000
 IRadAn=      0 IRanWt=     -1 IRanGd=            0 ICorTp=0 IEmpDi=  4
 NAtoms=    2 NActive=    2 NUniq=    1 SFac= 4.00D+00 NAtFMM=   60 NAOKFM=F Big=F
 Integral buffers will be    131072 words long.
 Raffenetti 2 integral format.
 Two-electron integral symmetry is turned on.
 Leave Link  301 at Fri Sep 20 13:12:04 2019, MaxMem=   134217728 cpu:         0.0
 (Enter /soft/gaussian/09-e.01/g09/l302.exe)
 NPDir=0 NMtPBC=     1 NCelOv=     1 NCel=       1 NClECP=     1 NCelD=      1
         NCelK=      1 NCelE2=     1 NClLst=     1 CellRange=     0.0.
 One-electron integrals computed using PRISM.
 One-electron integral symmetry used in STVInt
 NBasis=    18 RedAO= T EigKep=  1.18D-02  NBF=     5     0     2     2     0     5     2     2
 NBsUse=    18 1.00D-06 EigRej= -1.00D+00 NBFU=     5     0     2     2     0     5     2     2
 Precomputing XC quadrature grid using
 IXCGrd= 4 IRadAn=           0 IRanWt=          -1 IRanGd=           0 AccXCQ= 0.00D+00.
 Generated NRdTot=       0 NPtTot=           0 NUsed=           0 NTot=          32
 NSgBfM=    18    18    18    18    18 MxSgAt=     2 MxSgA2=     2.
 Leave Link  302 at Fri Sep 20 13:12:04 2019, MaxMem=   134217728 cpu:         0.1
 (Enter /soft/gaussian/09-e.01/g09/l303.exe)
 DipDrv:  MaxL=1.
 Leave Link  303 at Fri Sep 20 13:12:04 2019, MaxMem=   134217728 cpu:         0.0
 (Enter /soft/gaussian/09-e.01/g09/l401.exe)
 Initial guess from the checkpoint file:  "/scratch/kmoore/Gau-133085.chk"
 B after Tr=    -0.000000   -0.000000   -0.000000
         Rot=    1.000000    0.000000    0.000000    0.000000 Ang=   0.00 deg.
 Guess basis will be translated and rotated to current coordinates.
 JPrj=2 DoOrth=T DoCkMO=T.
 Initial guess orbital symmetries:
       Occupied  (SGG) (SGU) (SGG) (SGU) (PIU) (PIU) (SGG)
       Virtual   (SGG) (SGG) (PIG) (PIG) (PIG) (PIG) (SGU) (SGU)
                 (SGU) (PIU) (PIU)
 The electronic state of the initial guess is 1-SGG.
 Leave Link  401 at Fri Sep 20 13:12:04 2019, MaxMem=   134217728 cpu:         0.0
 (Enter /soft/gaussian/09-e.01/g09/l502.exe)
 Closed shell SCF:
 Using DIIS extrapolation, IDIIS=  1040.
 Integral symmetry usage will be decided dynamically.
 Keep R1 ints in memory in symmetry-blocked form, NReq=882785.
 IVT=        7633 IEndB=        7633 NGot=   134217728 MDV=   134206388
 LenX=   134206388 LenY=   134205506
 Requested convergence on RMS density matrix=1.00D-08 within  64 cycles.
 Requested convergence on MAX density matrix=1.00D-06.
 Requested convergence on             energy=1.00D-06.
 No special actions if energy rises.
 FoFCou: FMM=F IPFlag=           0 FMFlag=           0 FMFlg1=           0
         NFxFlg=           0 DoJE=F BraDBF=F KetDBF=F FulRan=T
         wScrn=  0.000000 ICntrl=     600 IOpCl=  0 I1Cent=           0 NGrid=           0
         NMat0=    1 NMatS0=    171 NMatT0=    0 NMatD0=    1 NMtDS0=    0 NMtDT0=    0
 Petite list used in FoFCou.

 Cycle   1  Pass 1  IDiag  1:
 E= -109.471040895306    
 DIIS: error= 2.23D-05 at cycle   1 NSaved=   1.
 NSaved= 1 IEnMin= 1 EnMin= -109.471040895306     IErMin= 1 ErrMin= 2.23D-05
 ErrMax= 2.23D-05  0.00D+00 EMaxC= 1.00D-01 BMatC= 9.96D-09 BMatP= 9.96D-09
 IDIUse=1 WtCom= 1.00D+00 WtEn= 0.00D+00
 Coeff-Com:  0.100D+01
 Coeff:      0.100D+01
 Gap=     0.415 Goal=   None    Shift=    0.000
 RMSDP=7.81D-06 MaxDP=2.71D-05              OVMax= 1.50D-05

 Cycle   2  Pass 1  IDiag  1:
 E= -109.471040906648     Delta-E=       -0.000000011342 Rises=F Damp=F
 DIIS: error= 8.40D-06 at cycle   2 NSaved=   2.
 NSaved= 2 IEnMin= 2 EnMin= -109.471040906648     IErMin= 2 ErrMin= 8.40D-06
 ErrMax= 8.40D-06  0.00D+00 EMaxC= 1.00D-01 BMatC= 1.42D-09 BMatP= 9.96D-09
 IDIUse=1 WtCom= 1.00D+00 WtEn= 0.00D+00
 Coeff-Com:  0.219D+00 0.781D+00
 Coeff:      0.219D+00 0.781D+00
 Gap=     0.381 Goal=   None    Shift=    0.000
 RMSDP=2.66D-06 MaxDP=1.25D-05 DE=-1.13D-08 OVMax= 8.75D-06

 Cycle   3  Pass 1  IDiag  1:
 E= -109.471040908008     Delta-E=       -0.000000001359 Rises=F Damp=F
 DIIS: error= 2.37D-06 at cycle   3 NSaved=   3.
 NSaved= 3 IEnMin= 3 EnMin= -109.471040908008     IErMin= 3 ErrMin= 2.37D-06
 ErrMax= 2.37D-06  0.00D+00 EMaxC= 1.00D-01 BMatC= 8.71D-11 BMatP= 1.42D-09
 IDIUse=1 WtCom= 1.00D+00 WtEn= 0.00D+00
 Coeff-Com: -0.169D-01 0.179D+00 0.838D+00
 Coeff:     -0.169D-01 0.179D+00 0.838D+00
 Gap=     0.381 Goal=   None    Shift=    0.000
 RMSDP=4.98D-07 MaxDP=1.76D-06 DE=-1.36D-09 OVMax= 8.72D-07

 Cycle   4  Pass 1  IDiag  1:
 E= -109.471040908100     Delta-E=       -0.000000000092 Rises=F Damp=F
 DIIS: error= 2.53D-08 at cycle   4 NSaved=   4.
 NSaved= 4 IEnMin= 4 EnMin= -109.471040908100     IErMin= 4 ErrMin= 2.53D-08
 ErrMax= 2.53D-08  0.00D+00 EMaxC= 1.00D-01 BMatC= 1.19D-14 BMatP= 8.71D-11
 IDIUse=1 WtCom= 1.00D+00 WtEn= 0.00D+00
 Coeff-Com: -0.489D-03-0.190D-02 0.490D-02 0.997D+00
 Coeff:     -0.489D-03-0.190D-02 0.490D-02 0.997D+00
 Gap=     0.381 Goal=   None    Shift=    0.000
 RMSDP=1.19D-08 MaxDP=1.12D-07 DE=-9.22D-11 OVMax= 2.18D-08

 Cycle   5  Pass 1  IDiag  1:
 E= -109.471040908100     Delta-E=        0.000000000000 Rises=F Damp=F
 DIIS: error= 9.28D-10 at cycle   5 NSaved=   5.
 NSaved= 5 IEnMin= 4 EnMin= -109.471040908100     IErMin= 5 ErrMin= 9.28D-10
 ErrMax= 9.28D-10  0.00D+00 EMaxC= 1.00D-01 BMatC= 1.86D-17 BMatP= 1.19D-14
 IDIUse=1 WtCom= 1.00D+00 WtEn= 0.00D+00
 Coeff-Com:  0.274D-04-0.381D-03-0.131D-02 0.565D-02 0.996D+00
 Coeff:      0.274D-04-0.381D-03-0.131D-02 0.565D-02 0.996D+00
 Gap=     0.381 Goal=   None    Shift=    0.000
 RMSDP=5.54D-10 MaxDP=3.73D-09 DE= 0.00D+00 OVMax= 1.65D-09

 SCF Done:  E(RB3LYP) =  -109.471040908     A.U. after    5 cycles
            NFock=  5  Conv=0.55D-09     -V/T= 2.0062
 KE= 1.087971311302D+02 PE=-3.021499312055D+02 EE= 6.069645011185D+01
 Leave Link  502 at Fri Sep 20 13:12:04 2019, MaxMem=   134217728 cpu:         0.1
 (Enter /soft/gaussian/09-e.01/g09/l508.exe)
 QCSCF skips out because SCF is already converged.
 Leave Link  508 at Fri Sep 20 13:12:04 2019, MaxMem=   134217728 cpu:         0.0
 (Enter /soft/gaussian/09-e.01/g09/l701.exe)
 Compute integral first derivatives.
 ... and contract with generalized density number  0.
 Leave Link  701 at Fri Sep 20 13:12:05 2019, MaxMem=   134217728 cpu:         0.1
 (Enter /soft/gaussian/09-e.01/g09/l702.exe)
 L702 exits ... SP integral derivatives will be done elsewhere.
 Leave Link  702 at Fri Sep 20 13:12:05 2019, MaxMem=   134217728 cpu:         0.0
 (Enter /soft/gaussian/09-e.01/g09/l703.exe)
 Compute integral first derivatives, UseDBF=F ICtDFT=           0.
 Integral derivatives from FoFJK, PRISM(SPDF).
 Calling FoFJK, ICntrl=      2127 FMM=F ISym2X=1 I1Cent= 0 IOpClX= 0 NMat=1 NMatS=1 NMatT=0.
 FoFJK:  IHMeth= 1 ICntrl=    2127 DoSepK=F KAlg= 0 I1Cent=   0 FoldK=F
 IRaf=         0 NMat=   1 IRICut=       1 DoRegI=T DoRafI=F ISym2E= 1.
 FoFCou: FMM=F IPFlag=           0 FMFlag=      100000 FMFlg1=         800
         NFxFlg=           0 DoJE=F BraDBF=F KetDBF=F FulRan=T
         wScrn=  0.000000 ICntrl=    2127 IOpCl=  0 I1Cent=           0 NGrid=           0
         NMat0=    1 NMatS0=      1 NMatT0=    0 NMatD0=    1 NMtDS0=    0 NMtDT0=    0
 Petite list used in FoFCou.
 Leave Link  703 at Fri Sep 20 13:12:05 2019, MaxMem=   134217728 cpu:         0.1
 (Enter /soft/gaussian/09-e.01/g09/l716.exe)
 Dipole        = 2.95822839D-31 0.00000000D+00 0.00000000D+00
 ***** Axes restored to original set *****
 -------------------------------------------------------------------
 Center     Atomic                   Forces (Hartrees/Bohr)
 Number     Number              X              Y              Z
 -------------------------------------------------------------------
      1        7          -0.000000004    0.000000000    0.000000000
      2        7           0.000000004   -0.000000000   -0.000000000
 -------------------------------------------------------------------
 Cartesian Forces:  Max     0.000000004 RMS     0.000000002
 Leave Link  716 at Fri Sep 20 13:12:05 2019, MaxMem=   134217728 cpu:         0.0
 (Enter /soft/gaussian/09-e.01/g09/l103.exe)

 GradGradGradGradGradGradGradGradGradGradGradGradGradGradGradGradGradGrad
 Berny optimization.
 Using GEDIIS/GDIIS optimizer.
 Red2BG is reusing G-inverse.
 Internal  Forces:  Max     0.000000004 RMS     0.000000004
 Search for a local minimum.
 Step number   3 out of a maximum of   20
 All quantities printed in internal units (Hartrees-Bohrs-Radians)
 RMS Force = .41592D-08 SwitMx=.10000D-02 MixMth= 2
 Mixed Optimization -- En-DIIS/RFO-DIIS
 Swapping is turned off.
 Update second derivatives using D2CorX and points    3
 DE= -4.25D-08 DEPred=-4.27D-08 R= 9.94D-01
 Trust test= 9.94D-01 RLast= 2.41D-04 DXMaxT set to 3.00D-01
 The second derivative matrix:
                          R1
           R1           1.45663
 ITU=  0  1
     Eigenvalues ---    1.45663
 En-DIIS/RFO-DIIS IScMMF=        0 using points:     3    2
 RFO step:  Lambda= 0.00000000D+00.
 NNeg= 0 NP= 2 Switch=  2.50D-03 Rises=F DC=  4.25D-08 SmlDif=  1.00D-05
 RMS Error=  0.3446154515D-08 NUsed= 2 EDIIS=F
 DidBck=F Rises=F RFO-DIIS coefs:    0.99999    0.00001
 Iteration  1 RMS(Cart)=  0.00000000 RMS(Int)=  0.00000000
 ITry= 1 IFail=0 DXMaxC= 1.42D-09 DCOld= 1.00D+10 DXMaxT= 3.00D-01 DXLimC= 3.00D+00 Rises=F
 ClnCor:  largest displacement from symmetrization is 8.90D-16 for atom     2.
 Variable       Old X    -DE/DX   Delta X   Delta X   Delta X     New X
                                 (Linear)    (Quad)   (Total)
    R1        2.11341   0.00000   0.00000  -0.00000   0.00000   2.11341
         Item               Value     Threshold  Converged?
 Maximum Force            0.000000     0.000450     YES
 RMS     Force            0.000000     0.000300     YES
 Maximum Displacement     0.000000     0.001800     YES
 RMS     Displacement     0.000000     0.001200     YES
 Predicted change in Energy=-5.937780D-18
 Optimization completed.
    -- Stationary point found.
                           ----------------------------
                           !   Optimized Parameters   !
                           ! (Angstroms and Degrees)  !
 --------------------------                            --------------------------
 ! Name  Definition              Value          Derivative Info.                !
 --------------------------------------------------------------------------------
 ! R1    R(1,2)                  1.1184         -DE/DX =    0.0                 !
 --------------------------------------------------------------------------------
 Lowest energy point so far.  Saving SCF results.
 GradGradGradGradGradGradGradGradGradGradGradGradGradGradGradGradGradGrad

 Largest change from initial coordinates is atom    1       0.001 Angstoms.
 Leave Link  103 at Fri Sep 20 13:12:05 2019, MaxMem=   134217728 cpu:         0.0
 (Enter /soft/gaussian/09-e.01/g09/l202.exe)
                          Input orientation:                          
 ---------------------------------------------------------------------
 Center     Atomic      Atomic             Coordinates (Angstroms)
 Number     Number       Type             X           Y           Z
 ---------------------------------------------------------------------
      1          7           0       -2.400084   -0.161603    0.000000
      2          7           0       -1.284165   -0.235554    0.000000
 ---------------------------------------------------------------------
 Stoichiometry    N2
 Framework group  D*H[C*(N.N)]
 Deg. of freedom     1
 Full point group                 D*H     NOp   8
 RotChk:  IX=0 Diff= 4.17D-16
 Largest Abelian subgroup         D2H     NOp   8
 Largest concise Abelian subgroup C2      NOp   2
                         Standard orientation:                         
 ---------------------------------------------------------------------
 Center     Atomic      Atomic             Coordinates (Angstroms)
 Number     Number       Type             X           Y           Z
 ---------------------------------------------------------------------
      1          7           0        0.000000   -0.000000    0.559183
      2          7           0        0.000000   -0.000000   -0.559183
 ---------------------------------------------------------------------
 Rotational constants (GHZ):      0.0000000     57.7105435     57.7105435
 Leave Link  202 at Fri Sep 20 13:12:05 2019, MaxMem=   134217728 cpu:         0.0
 (Enter /soft/gaussian/09-e.01/g09/l601.exe)
 Copying SCF densities to generalized density rwf, IOpCl= 0 IROHF=0.

 **********************************************************************

            Population analysis using the SCF density.

 **********************************************************************

 Orbital symmetries:
       Occupied  (SGG) (SGU) (SGG) (SGU) (PIU) (PIU) (SGG)
       Virtual   (PIG) (PIG) (SGU) (SGG) (PIU) (PIU) (SGG) (PIG)
                 (PIG) (SGU) (SGU)
 The electronic state is 1-SGG.
 Alpha  occ. eigenvalues --  -14.46022 -14.45892  -1.16597  -0.55049  -0.47168
 Alpha  occ. eigenvalues --   -0.47168  -0.42261
 Alpha virt. eigenvalues --   -0.04137  -0.04137   0.40640   0.60696   0.61286
 Alpha virt. eigenvalues --    0.61286   0.72996   0.74459   0.74459   0.82444
 Alpha virt. eigenvalues --    1.28183
          Condensed to atoms (all electrons):
               1          2
     1  N    6.754829   0.245171
     2  N    0.245171   6.754829
 Mulliken charges:
               1
     1  N   -0.000000
     2  N   -0.000000
 Sum of Mulliken charges =  -0.00000
 Mulliken charges with hydrogens summed into heavy atoms:
               1
     1  N   -0.000000
     2  N   -0.000000
 Electronic spatial extent (au):  <R**2>=             39.7831
 Charge=              0.0000 electrons
 Dipole moment (field-independent basis, Debye):
    X=              0.0000    Y=              0.0000    Z=              0.0000  Tot=              0.0000
 Quadrupole moment (field-independent basis, Debye-Ang):
   XX=            -10.0748   YY=            -10.0748   ZZ=            -12.3336
   XY=             -0.0000   XZ=              0.0000   YZ=             -0.0000
 Traceless Quadrupole moment (field-independent basis, Debye-Ang):
   XX=              0.7529   YY=              0.7529   ZZ=             -1.5059
   XY=             -0.0000   XZ=              0.0000   YZ=             -0.0000
 Octapole moment (field-independent basis, Debye-Ang**2):
  XXX=             -0.0000  YYY=              0.0000  ZZZ=              0.0000  XYY=             -0.0000
  XXY=              0.0000  XXZ=              0.0000  XZZ=             -0.0000  YZZ=              0.0000
  YYZ=              0.0000  XYZ=             -0.0000
 Hexadecapole moment (field-independent basis, Debye-Ang**3):
 XXXX=             -8.0627 YYYY=             -8.0627 ZZZZ=            -31.1992 XXXY=             -0.0000
 XXXZ=              0.0000 YYYX=             -0.0000 YYYZ=             -0.0000 ZZZX=              0.0000
 ZZZY=             -0.0000 XXYY=             -2.6876 XXZZ=             -6.2093 YYZZ=             -6.2093
 XXYZ=             -0.0000 YYXZ=              0.0000 ZZXY=             -0.0000
 N-N= 2.318530905539D+01 E-N=-3.021499311812D+02  KE= 1.087971311302D+02
 Symmetry AG   KE= 5.318818612882D+01
 Symmetry B1G  KE= 0.000000000000D+00
 Symmetry B2G  KE= 1.000162574121D-32
 Symmetry B3G  KE=-2.910073164822D-34
 Symmetry AU   KE= 0.000000000000D+00
 Symmetry B1U  KE= 4.878951159357D+01
 Symmetry B2U  KE= 3.409716703884D+00
 Symmetry B3U  KE= 3.409716703884D+00
 No NMR shielding tensors so no spin-rotation constants.
 Leave Link  601 at Fri Sep 20 13:12:05 2019, MaxMem=   134217728 cpu:         0.1
 (Enter /soft/gaussian/09-e.01/g09/l9999.exe)
 1\1\GINC-B460\FOpt\RB3LYP\6-31G\N2\KMOORE\20-Sep-2019\0\\#P b3lyp/6-31
 g # SCF=(xqc) # Opt # Freq=(ANHARM,VIBROT)\\comment:\\0,1\N,-2.4000840
 753,-0.1616027479,0.\N,-1.2841648215,-0.2355543487,0.\\Version=ES64L-G
 09RevE.01\State=1-SGG\HF=-109.4710409\RMSD=5.541e-10\RMSF=2.401e-09\Di
 pole=0.,0.,0.\Quadrupole=-1.1122384,0.5524477,0.5597907,0.1108048,0.,0
 .\PG=D*H [C*(N1.N1)]\\@


 TOM, TOM, THE BURGLAR'S SON
 STOLE A MACHINE AND AWAY HE RUN
 THE JOB WAS NEAT, BUT TOM GOT BEAT
 BY THE TIME HE GOT HOME IT WAS OBSOLETE.
 Leave Link 9999 at Fri Sep 20 13:12:05 2019, MaxMem=   134217728 cpu:         0.0
 Job cpu time:       0 days  0 hours  0 minutes  3.0 seconds.
 File lengths (MBytes):  RWF=      5 Int=      0 D2E=      0 Chk=      1 Scr=      1
 Normal termination of Gaussian 09 at Fri Sep 20 13:12:05 2019.
 (Enter /soft/gaussian/09-e.01/g09/l1.exe)
 Link1:  Proceeding to internal job step number  2.
 -----------------------------------------------------------------
 #P Geom=AllCheck Guess=TCheck SCRF=Check GenChk RB3LYP/6-31G Freq
 -----------------------------------------------------------------
 1/10=4,29=7,30=1,38=21,40=1,80=1/1,6,3;
 2/12=2,40=1/2;
 3/5=1,6=6,11=2,14=-4,16=1,25=1,30=1,70=2,71=2,74=-5,116=1,140=1/1,2,3;
 4/5=101,69=2/1;
 5/5=2,8=3,13=1,38=6,96=-2,98=1/2,8;
 8/6=4,10=90,11=11/1;
 11/6=1,8=1,9=11,15=111,16=1/1,2,10;
 10/6=1,60=-2/2;
 6/7=2,8=2,9=2,10=2,28=1/1;
 7/10=1,25=1,70=1,71=2/1,2,3,16;
 1/38=20,80=1/6(3);
 7/8=1,25=2,44=-1,70=1,71=2/16,17;
 1/10=4,30=1,38=20,80=1/3;
 99/8=1100/99;
 3/5=1,6=6,11=2,14=-2,16=1,25=1,30=1,70=5,71=2,74=-5,116=1,140=1/1,2,3;
 4/5=5,16=3,69=2/1;
 5/5=2,8=3,13=1,38=5,96=-2,98=1/2,8;
 8/6=4,10=90,11=11/1;
 11/6=1,8=1,9=11,15=111,16=1/1,2,10;
 10/6=1,60=-2/2;
 6/7=2,8=2,9=2,10=2,28=1/1;
 7/7=1,10=1,25=1,70=1,71=1/1,2,3,16;
 1/38=20,80=1/6(-8);
 7/8=1,25=2,44=-1,70=1,71=1/16,17;
 1/10=4,30=1,38=20,80=1/3;
 99/8=1100/99;
 Leave Link    1 at Fri Sep 20 13:12:05 2019, MaxMem=   134217728 cpu:         0.0
 (Enter /soft/gaussian/09-e.01/g09/l101.exe)
 Structure from the checkpoint file:  "/scratch/kmoore/Gau-133085.chk"
 --------
 comment:
 --------
 Charge =  0 Multiplicity = 1
 Redundant internal coordinates found in file.
 N,0,-2.4000840753,-0.1616027479,0.
 N,0,-1.2841648215,-0.2355543487,0.
 Recover connectivity data from disk.
 NAtoms=      2 NQM=        2 NQMF=       0 NMMI=      0 NMMIF=      0
                NMic=       0 NMicF=      0.
                    Isotopes and Nuclear Properties:
 (Nuclear quadrupole moments (NQMom) in fm**2, nuclear magnetic moments (NMagM)
  in nuclear magnetons)

  Atom         1           2
 IAtWgt=          14          14
 AtmWgt=  14.0030740  14.0030740
 NucSpn=           2           2
 AtZEff=  -4.5500000  -4.5500000
 NQMom=    2.0440000   2.0440000
 NMagM=    0.4037610   0.4037610
 AtZNuc=   7.0000000   7.0000000
 Leave Link  101 at Fri Sep 20 13:12:05 2019, MaxMem=   134217728 cpu:         0.1
 (Enter /soft/gaussian/09-e.01/g09/l106.exe)
 Numerical evaluation of third derivatives.
 Nuclear step= 0.010000 Angstroms, electric field step= 0.000333 atomic units, NStep=1.
 Leave Link  106 at Fri Sep 20 13:12:05 2019, MaxMem=   134217728 cpu:         0.0
 (Enter /soft/gaussian/09-e.01/g09/l103.exe)

 GradGradGradGradGradGradGradGradGradGradGradGradGradGradGradGradGradGrad
 Berny optimization.
 Initialization pass.
                           ----------------------------
                           !    Initial Parameters    !
                           ! (Angstroms and Degrees)  !
 --------------------------                            --------------------------
 ! Name  Definition              Value          Derivative Info.                !
 --------------------------------------------------------------------------------
 ! R1    R(1,2)                  1.1184         calculate D2E/DX2 analytically  !
 --------------------------------------------------------------------------------
 Trust Radius=3.00D-01 FncErr=1.00D-07 GrdErr=1.00D-07
 Number of steps in this run=      2 maximum allowed number of steps=      2.
 GradGradGradGradGradGradGradGradGradGradGradGradGradGradGradGradGradGrad

 Leave Link  103 at Fri Sep 20 13:12:05 2019, MaxMem=   134217728 cpu:         0.0
 (Enter /soft/gaussian/09-e.01/g09/l202.exe)
                          Input orientation:                          
 ---------------------------------------------------------------------
 Center     Atomic      Atomic             Coordinates (Angstroms)
 Number     Number       Type             X           Y           Z
 ---------------------------------------------------------------------
      1          7           0       -2.400084   -0.161603    0.000000
      2          7           0       -1.284165   -0.235554    0.000000
 ---------------------------------------------------------------------
 Stoichiometry    N2
 Framework group  D*H[C*(N.N)]
 Deg. of freedom     1
 Full point group                 D*H     NOp   8
 RotChk:  IX=0 Diff= 3.52D-16
 Largest Abelian subgroup         D2H     NOp   8
 Largest concise Abelian subgroup C2      NOp   2
                         Standard orientation:                         
 ---------------------------------------------------------------------
 Center     Atomic      Atomic             Coordinates (Angstroms)
 Number     Number       Type             X           Y           Z
 ---------------------------------------------------------------------
      1          7           0        0.000000    0.000000    0.559183
      2          7           0        0.000000    0.000000   -0.559183
 ---------------------------------------------------------------------
 Rotational constants (GHZ):      0.0000000     57.7105435     57.7105435
 Leave Link  202 at Fri Sep 20 13:12:05 2019, MaxMem=   134217728 cpu:         0.0
 (Enter /soft/gaussian/09-e.01/g09/l301.exe)
 Standard basis: 6-31G (6D, 7F)
 Ernie: Thresh=  0.10000D-02 Tol=  0.10000D-05 Strict=F.
 There are     5 symmetry adapted cartesian basis functions of AG  symmetry.
 There are     0 symmetry adapted cartesian basis functions of B1G symmetry.
 There are     2 symmetry adapted cartesian basis functions of B2G symmetry.
 There are     2 symmetry adapted cartesian basis functions of B3G symmetry.
 There are     0 symmetry adapted cartesian basis functions of AU  symmetry.
 There are     5 symmetry adapted cartesian basis functions of B1U symmetry.
 There are     2 symmetry adapted cartesian basis functions of B2U symmetry.
 There are     2 symmetry adapted cartesian basis functions of B3U symmetry.
 There are     5 symmetry adapted basis functions of AG  symmetry.
 There are     0 symmetry adapted basis functions of B1G symmetry.
 There are     2 symmetry adapted basis functions of B2G symmetry.
 There are     2 symmetry adapted basis functions of B3G symmetry.
 There are     0 symmetry adapted basis functions of AU  symmetry.
 There are     5 symmetry adapted basis functions of B1U symmetry.
 There are     2 symmetry adapted basis functions of B2U symmetry.
 There are     2 symmetry adapted basis functions of B3U symmetry.
    18 basis functions,    44 primitive gaussians,    18 cartesian basis functions
     7 alpha electrons        7 beta electrons
       nuclear repulsion energy        23.1853090554 Hartrees.
 IExCor=  402 DFT=T Ex+Corr=B3LYP ExCW=0 ScaHFX=  0.200000
 ScaDFX=  0.800000  0.720000  1.000000  0.810000 ScalE2=  1.000000  1.000000
 IRadAn=      0 IRanWt=     -1 IRanGd=            0 ICorTp=0 IEmpDi=  4
 NAtoms=    2 NActive=    2 NUniq=    1 SFac= 4.00D+00 NAtFMM=   60 NAOKFM=F Big=F
 Integral buffers will be    131072 words long.
 Raffenetti 2 integral format.
 Two-electron integral symmetry is turned on.
 Leave Link  301 at Fri Sep 20 13:12:05 2019, MaxMem=   134217728 cpu:         0.1
 (Enter /soft/gaussian/09-e.01/g09/l302.exe)
 NPDir=0 NMtPBC=     1 NCelOv=     1 NCel=       1 NClECP=     1 NCelD=      1
         NCelK=      1 NCelE2=     1 NClLst=     1 CellRange=     0.0.
 One-electron integrals computed using PRISM.
 One-electron integral symmetry used in STVInt
 NBasis=    18 RedAO= T EigKep=  1.18D-02  NBF=     5     0     2     2     0     5     2     2
 NBsUse=    18 1.00D-06 EigRej= -1.00D+00 NBFU=     5     0     2     2     0     5     2     2
 Precomputing XC quadrature grid using
 IXCGrd= 4 IRadAn=           0 IRanWt=          -1 IRanGd=           0 AccXCQ= 0.00D+00.
 Generated NRdTot=       0 NPtTot=           0 NUsed=           0 NTot=          32
 NSgBfM=    18    18    18    18    18 MxSgAt=     2 MxSgA2=     2.
 Leave Link  302 at Fri Sep 20 13:12:05 2019, MaxMem=   134217728 cpu:         0.1
 (Enter /soft/gaussian/09-e.01/g09/l303.exe)
 DipDrv:  MaxL=1.
 Leave Link  303 at Fri Sep 20 13:12:05 2019, MaxMem=   134217728 cpu:         0.0
 (Enter /soft/gaussian/09-e.01/g09/l401.exe)
 Initial guess from the checkpoint file:  "/scratch/kmoore/Gau-133085.chk"
 B after Tr=     0.000000    0.000000   -0.000000
         Rot=    1.000000   -0.000000    0.000000    0.000000 Ang=   0.00 deg.
 Guess basis will be translated and rotated to current coordinates.
 JPrj=2 DoOrth=T DoCkMO=T.
 Initial guess orbital symmetries:
       Occupied  (SGG) (SGU) (SGG) (SGU) (PIU) (PIU) (SGG)
       Virtual   (PIG) (PIG) (SGU) (SGG) (PIU) (PIU) (SGG) (PIG)
                 (PIG) (SGU) (SGU)
 The electronic state of the initial guess is 1-SGG.
 Leave Link  401 at Fri Sep 20 13:12:06 2019, MaxMem=   134217728 cpu:         0.1
 (Enter /soft/gaussian/09-e.01/g09/l502.exe)
 Closed shell SCF:
 Using DIIS extrapolation, IDIIS=  1040.
 Integral symmetry usage will be decided dynamically.
 Keep R1 ints in memory in symmetry-blocked form, NReq=882785.
 IVT=        7633 IEndB=        7633 NGot=   134217728 MDV=   134206388
 LenX=   134206388 LenY=   134205506
 Requested convergence on RMS density matrix=1.00D-08 within  64 cycles.
 Requested convergence on MAX density matrix=1.00D-06.
 Requested convergence on             energy=1.00D-06.
 No special actions if energy rises.
 FoFCou: FMM=F IPFlag=           0 FMFlag=           0 FMFlg1=           0
         NFxFlg=           0 DoJE=F BraDBF=F KetDBF=F FulRan=T
         wScrn=  0.000000 ICntrl=     600 IOpCl=  0 I1Cent=           0 NGrid=           0
         NMat0=    1 NMatS0=    171 NMatT0=    0 NMatD0=    1 NMtDS0=    0 NMtDT0=    0
 Petite list used in FoFCou.

 Cycle   1  Pass 1  IDiag  1:
 E= -109.471040908100    
 DIIS: error= 3.72D-11 at cycle   1 NSaved=   1.
 NSaved= 1 IEnMin= 1 EnMin= -109.471040908100     IErMin= 1 ErrMin= 3.72D-11
 ErrMax= 3.72D-11  0.00D+00 EMaxC= 1.00D-01 BMatC= 1.74D-20 BMatP= 1.74D-20
 IDIUse=1 WtCom= 1.00D+00 WtEn= 0.00D+00
 Coeff-Com:  0.100D+01
 Coeff:      0.100D+01
 Gap=     0.381 Goal=   None    Shift=    0.000
 Skip diagonalization as Alpha Fock matrix is already diagonal.
 RMSDP=0.00D+00 MaxDP=0.00D+00              OVMax= 0.00D+00

 SCF Done:  E(RB3LYP) =  -109.471040908     A.U. after    1 cycles
            NFock=  1  Conv=0.00D+00     -V/T= 2.0062
 KE= 1.087971311302D+02 PE=-3.021499311812D+02 EE= 6.069645008759D+01
 Leave Link  502 at Fri Sep 20 13:12:06 2019, MaxMem=   134217728 cpu:         0.1
 (Enter /soft/gaussian/09-e.01/g09/l508.exe)
 QCSCF skips out because SCF is already converged.
 Leave Link  508 at Fri Sep 20 13:12:06 2019, MaxMem=   134217728 cpu:         0.0
 (Enter /soft/gaussian/09-e.01/g09/l801.exe)
 DoSCS=F DFT=T ScalE2(SS,OS)=  1.000000  1.000000
 Range of M.O.s used for correlation:     1    18
 NBasis=    18 NAE=     7 NBE=     7 NFC=     0 NFV=     0
 NROrb=     18 NOA=     7 NOB=     7 NVA=    11 NVB=    11
 Leave Link  801 at Fri Sep 20 13:12:06 2019, MaxMem=   134217728 cpu:         0.0
 (Enter /soft/gaussian/09-e.01/g09/l1101.exe)
 Using compressed storage, NAtomX=     2.
 Will process      3 centers per pass.
 Leave Link 1101 at Fri Sep 20 13:12:06 2019, MaxMem=   134217728 cpu:         0.1
 (Enter /soft/gaussian/09-e.01/g09/l1102.exe)
 Symmetrizing basis deriv contribution to polar:
 IMax=3 JMax=2 DiffMx= 0.00D+00
 Leave Link 1102 at Fri Sep 20 13:12:06 2019, MaxMem=   134217728 cpu:         0.0
 (Enter /soft/gaussian/09-e.01/g09/l1110.exe)
 Forming Gx(P) for the SCF density, NAtomX=     2.
 Integral derivatives from FoFJK, PRISM(SPDF).
 Do as many integral derivatives as possible in FoFJK.
 G2DrvN: MDV=     134217608.
 G2DrvN: will do     3 centers at a time, making    1 passes.
 Calling FoFCou, ICntrl=  3107 FMM=F I1Cent=   0 AccDes= 0.00D+00.
 FoFJK:  IHMeth= 1 ICntrl=    3107 DoSepK=F KAlg= 0 I1Cent=   0 FoldK=F
 IRaf=         0 NMat=   1 IRICut=       1 DoRegI=T DoRafI=F ISym2E= 1.
 FoFCou: FMM=F IPFlag=           0 FMFlag=      100000 FMFlg1=           0
         NFxFlg=           0 DoJE=F BraDBF=F KetDBF=F FulRan=T
         wScrn=  0.000000 ICntrl=    3107 IOpCl=  0 I1Cent=           0 NGrid=           0
         NMat0=    1 NMatS0=      1 NMatT0=    0 NMatD0=    1 NMtDS0=    0 NMtDT0=    0
 Petite list used in FoFCou.
 End of G2Drv F.D. properties file   721 does not exist.
 End of G2Drv F.D. properties file   722 does not exist.
 End of G2Drv F.D. properties file   788 does not exist.
 Leave Link 1110 at Fri Sep 20 13:12:06 2019, MaxMem=   134217728 cpu:         0.1
 (Enter /soft/gaussian/09-e.01/g09/l1002.exe)
 Minotr:  Closed shell wavefunction.
          IDoAtm=11
          Direct CPHF calculation.
          Differentiating once with respect to electric field.
                with respect to dipole field.
          Differentiating once with respect to nuclear coordinates.
          Using symmetry in CPHF.
          Requested convergence is 1.0D-08 RMS, and 1.0D-07 maximum.
          Secondary convergence is 1.0D-12 RMS, and 1.0D-12 maximum.
          NewPWx=T KeepS1=F KeepF1=F KeepIn=T MapXYZ=F SortEE=F KeepMc=T.
          MDV=     134217686 using IRadAn=       1.
 Generate precomputed XC quadrature information.
 Keep R1 ints in memory in symmetry-blocked form, NReq=875345.
 FoFCou: FMM=F IPFlag=           0 FMFlag=           0 FMFlg1=           0
         NFxFlg=           0 DoJE=F BraDBF=F KetDBF=F FulRan=T
         wScrn=  0.000000 ICntrl=     600 IOpCl=  0 I1Cent=           0 NGrid=           0
         NMat0=    1 NMatS0=    171 NMatT0=    0 NMatD0=    1 NMtDS0=    0 NMtDT0=    0
 Petite list used in FoFCou.
          Solving linear equations simultaneously, MaxMat=       0.
          There are     6 degrees of freedom in the 1st order CPHF.  IDoFFX=4 NUNeed=     6.
      6 vectors produced by pass  0 Test12= 1.28D-15 1.67D-08 XBig12= 1.59D+01 2.67D+00.
 AX will form     6 AO Fock derivatives at one time.
      6 vectors produced by pass  1 Test12= 1.28D-15 1.67D-08 XBig12= 1.11D+01 1.72D+00.
      6 vectors produced by pass  2 Test12= 1.28D-15 1.67D-08 XBig12= 2.46D-02 8.25D-02.
      6 vectors produced by pass  3 Test12= 1.28D-15 1.67D-08 XBig12= 1.05D-05 1.63D-03.
      6 vectors produced by pass  4 Test12= 1.28D-15 1.67D-08 XBig12= 6.86D-09 5.43D-05.
      2 vectors produced by pass  5 Test12= 1.28D-15 1.67D-08 XBig12= 2.11D-12 8.26D-07.
      1 vectors produced by pass  6 Test12= 1.28D-15 1.67D-08 XBig12= 2.63D-15 2.72D-08.
 InvSVY:  IOpt=1 It=  1 EMax= 3.29D-16
 Solved reduced A of dimension    33 with     6 vectors.
 FullF1:  Do perturbations    1 to     6.
 Isotropic polarizability for W=    0.000000        8.08 Bohr**3.
 End of Minotr F.D. properties file   721 does not exist.
 End of Minotr F.D. properties file   722 does not exist.
 End of Minotr F.D. properties file   788 does not exist.
 Leave Link 1002 at Fri Sep 20 13:12:07 2019, MaxMem=   134217728 cpu:         0.4
 (Enter /soft/gaussian/09-e.01/g09/l601.exe)
 Copying SCF densities to generalized density rwf, IOpCl= 0 IROHF=0.

 **********************************************************************

            Population analysis using the SCF density.

 **********************************************************************

 Orbital symmetries:
       Occupied  (SGG) (SGU) (SGG) (SGU) (PIU) (PIU) (SGG)
       Virtual   (PIG) (PIG) (SGU) (SGG) (PIU) (PIU) (SGG) (PIG)
                 (PIG) (SGU) (SGU)
 The electronic state is 1-SGG.
 Alpha  occ. eigenvalues --  -14.46022 -14.45892  -1.16597  -0.55049  -0.47168
 Alpha  occ. eigenvalues --   -0.47168  -0.42261
 Alpha virt. eigenvalues --   -0.04137  -0.04137   0.40640   0.60696   0.61286
 Alpha virt. eigenvalues --    0.61286   0.72996   0.74459   0.74459   0.82444
 Alpha virt. eigenvalues --    1.28183
          Condensed to atoms (all electrons):
               1          2
     1  N    6.754829   0.245171
     2  N    0.245171   6.754829
 Mulliken charges:
               1
     1  N   -0.000000
     2  N   -0.000000
 Sum of Mulliken charges =  -0.00000
 Mulliken charges with hydrogens summed into heavy atoms:
               1
     1  N   -0.000000
     2  N   -0.000000
 APT charges:
               1
     1  N   -0.000000
     2  N    0.000000
 Sum of APT charges =  -0.00000
 APT charges with hydrogens summed into heavy atoms:
               1
     1  N   -0.000000
     2  N    0.000000
 Electronic spatial extent (au):  <R**2>=             39.7831
 Charge=             -0.0000 electrons
 Dipole moment (field-independent basis, Debye):
    X=             -0.0000    Y=              0.0000    Z=              0.0000  Tot=              0.0000
 Quadrupole moment (field-independent basis, Debye-Ang):
   XX=            -10.0748   YY=            -10.0748   ZZ=            -12.3336
   XY=              0.0000   XZ=              0.0000   YZ=              0.0000
 Traceless Quadrupole moment (field-independent basis, Debye-Ang):
   XX=              0.7529   YY=              0.7529   ZZ=             -1.5059
   XY=              0.0000   XZ=              0.0000   YZ=              0.0000
 Octapole moment (field-independent basis, Debye-Ang**2):
  XXX=             -0.0000  YYY=             -0.0000  ZZZ=              0.0000  XYY=             -0.0000
  XXY=             -0.0000  XXZ=              0.0000  XZZ=             -0.0000  YZZ=             -0.0000
  YYZ=              0.0000  XYZ=             -0.0000
 Hexadecapole moment (field-independent basis, Debye-Ang**3):
 XXXX=             -8.0627 YYYY=             -8.0627 ZZZZ=            -31.1992 XXXY=              0.0000
 XXXZ=              0.0000 YYYX=              0.0000 YYYZ=              0.0000 ZZZX=              0.0000
 ZZZY=              0.0000 XXYY=             -2.6876 XXZZ=             -6.2093 YYZZ=             -6.2093
 XXYZ=              0.0000 YYXZ=              0.0000 ZZXY=              0.0000
 N-N= 2.318530905539D+01 E-N=-3.021499311812D+02  KE= 1.087971311302D+02
 Symmetry AG   KE= 5.318818612882D+01
 Symmetry B1G  KE= 0.000000000000D+00
 Symmetry B2G  KE= 8.570352488237D-33
 Symmetry B3G  KE= 4.280333152774D-32
 Symmetry AU   KE= 0.000000000000D+00
 Symmetry B1U  KE= 4.878951159357D+01
 Symmetry B2U  KE= 3.409716703884D+00
 Symmetry B3U  KE= 3.409716703884D+00
  Exact polarizability:   5.269  -0.000   5.269  -0.000  -0.000  13.714
 Approx polarizability:   6.221   0.000   6.221  -0.000  -0.000  30.415
 No NMR shielding tensors so no spin-rotation constants.
 Leave Link  601 at Fri Sep 20 13:12:07 2019, MaxMem=   134217728 cpu:         0.1
 (Enter /soft/gaussian/09-e.01/g09/l701.exe)
 Compute integral second derivatives.
 ... and contract with generalized density number  0.
 Leave Link  701 at Fri Sep 20 13:12:07 2019, MaxMem=   134217728 cpu:         0.1
 (Enter /soft/gaussian/09-e.01/g09/l702.exe)
 L702 exits ... SP integral derivatives will be done elsewhere.
 Leave Link  702 at Fri Sep 20 13:12:07 2019, MaxMem=   134217728 cpu:         0.0
 (Enter /soft/gaussian/09-e.01/g09/l703.exe)
 Compute integral second derivatives, UseDBF=F ICtDFT=           0.
 Integral derivatives from FoFJK, PRISM(SPDF).
 Calling FoFJK, ICntrl=    100127 FMM=F ISym2X=1 I1Cent= 0 IOpClX= 0 NMat=1 NMatS=1 NMatT=0.
 FoFJK:  IHMeth= 1 ICntrl=  100127 DoSepK=F KAlg= 0 I1Cent=   0 FoldK=F
 IRaf=         0 NMat=   1 IRICut=       1 DoRegI=T DoRafI=F ISym2E= 1.
 FoFCou: FMM=F IPFlag=           0 FMFlag=      100000 FMFlg1=         800
         NFxFlg=           0 DoJE=F BraDBF=F KetDBF=F FulRan=T
         wScrn=  0.000000 ICntrl=  100127 IOpCl=  0 I1Cent=           0 NGrid=           0
         NMat0=    1 NMatS0=      1 NMatT0=    0 NMatD0=    1 NMtDS0=    0 NMtDT0=    0
 Petite list used in FoFCou.
 Leave Link  703 at Fri Sep 20 13:12:07 2019, MaxMem=   134217728 cpu:         0.2
 (Enter /soft/gaussian/09-e.01/g09/l716.exe)
 Dipole        =-1.97215226D-31 0.00000000D+00 4.44089312D-16
 Polarizability= 5.26865145D+00-4.38703361D-16 5.26865145D+00
                -4.84126811D-16-5.42562619D-16 1.37137205D+01
 Full mass-weighted force constant matrix:
 Low frequencies ---   -0.0019   -0.0019   -0.0017    7.8870    7.8870 2352.2235
 Diagonal vibrational polarizability:
        0.0000000       0.0000000       0.0000000
 Harmonic frequencies (cm**-1), IR intensities (KM/Mole), Raman scattering
 activities (A**4/AMU), depolarization ratios for plane and unpolarized
 incident light, reduced masses (AMU), force constants (mDyne/A),
 and normal coordinates:
                      1
                     SGG
 Frequencies --   2352.2235
 Red. masses --     14.0031
 Frc consts  --     45.6489
 IR Inten    --      0.0000
  Atom  AN      X      Y      Z
     1   7    -0.00  -0.00   0.71
     2   7     0.00   0.00  -0.71

 -------------------
 - Thermochemistry -
 -------------------
 Temperature   298.150 Kelvin.  Pressure   1.00000 Atm.
 Atom     1 has atomic number  7 and mass  14.00307
 Atom     2 has atomic number  7 and mass  14.00307
 Molecular mass:    28.00615 amu.
 Principal axes and moments of inertia in atomic units:
                           1         2         3
     Eigenvalues --     0.00000  31.27230  31.27230
           X           -0.00000   0.03036   0.99954
           Y           -0.00000   0.99954  -0.03036
           Z            1.00000   0.00000   0.00000
 This molecule is a prolate symmetric top.
 Rotational symmetry number  2.
 Rotational temperature (Kelvin)      2.76967
 Rotational constant (GHZ):          57.710543
 Zero-point vibrational energy      14069.4 (Joules/Mol)
                                    3.36267 (Kcal/Mol)
 Vibrational temperatures:   3384.32
          (Kelvin)
 
 Zero-point correction=                           0.005359 (Hartree/Particle)
 Thermal correction to Energy=                    0.007719
 Thermal correction to Enthalpy=                  0.008664
 Thermal correction to Gibbs Free Energy=        -0.013113
 Sum of electronic and zero-point Energies=           -109.465682
 Sum of electronic and thermal Energies=              -109.463322
 Sum of electronic and thermal Enthalpies=            -109.462377
 Sum of electronic and thermal Free Energies=         -109.484154
 
                     E (Thermal)             CV                S
                      KCal/Mol        Cal/Mol-Kelvin    Cal/Mol-Kelvin
 Total                    4.844              4.971             45.832
[...]

 Analysis of symmetry relations in quartic force constants
 -------------------------------------------------------

 Total of NumErr found:   0
 Total of SymErr found:   0

     ==================================================
                   Coriolis Couplings
     ==================================================
 No Coriolis coupling for diatomic molecules

     ==================================================
     Printing Energy derivatives and Coriolis Couplings
     ==================================================
 WARNING: The old printing layout is only available for asymmetric tops.

 ........................................................
 :   Reference Energy (a.u.):       -0.109471D+03       :
 :                    (cm-1):       -0.498787D-03       :
 :......................................................:

 ........................................................
 :                   CORIOLIS COUPLINGS                 :
 :......................................................:

       Ax    I    J      Zeta(I,J)


       0 Coriolis Couplings larger than 0.100D-02 over       3

 ........................................................
 :      QUADRATIC FORCE CONSTANTS IN NORMAL MODES       :
 :                                                      :
 : FI =  Frequency [cm-1]                               :
 : k  =  Force Const.[ attoJ * amu(-1) * ang(-2) ]      :
 : K  =  Force Const.[ Hartrees * amu(-1) * bohr(-2) ]  :
 :......................................................:

             I    J      FI(I,J)     k(I,J)      K(I,J)

             1    1    2352.22352     3.25992     0.20939

       1 2nd derivatives larger than 0.371D-04 over       1

 ........................................................
 :        CUBIC FORCE CONSTANTS IN NORMAL MODES         :
 :                                                      :
 : FI =  Reduced values [cm-1]  (default input)         :
 : k  =  Cubic Force Const.[AttoJ*amu(-3/2)*Ang(-3)]    :
 : K  =  Cubic Force Const.[Hartree*amu(-3/2)*Bohr(-3)] :
 :......................................................:

        I    J    K    FI(I,J,K)   k(I,J,K)    K(I,J,K)

        1    1    1     773.25149     8.95108     0.30424

       1 3rd derivatives larger than 0.371D-04 over       1

 ........................................................
 :                                                      :
 :       QUARTIC FORCE CONSTANTS IN NORMAL MODES        :
 :                                                      :
 : FI =  Reduced values [cm-1]  (default input)         :
 : k  =  Quartic Force Const.[AttoJ*amu(-2)*Ang(-4)]    :
 : K  =  Quartic Force Const.[Hartree*amu(-2)*Bohr(-4)] :
 :......................................................:

   I    J    K    L   FI(I,J,K,L) k(I,J,K,L) K(I,J,K,L)

   1    1    1    1     197.96762    19.14146     0.34429

       1 4th derivatives larger than 0.371D-04 over       1

     ==================================================
          Input to Restart Anharmonic Calculations
     ==================================================

***************** cut here for Dina input *****************
 DataSrc=(InDerAU,NMOrder=AscNoIrrep)

              1    1            0.209386
         1    1    1            0.304241
    1    1    1    1            0.344285

***************** cut here for Dina input *****************

     ==================================================
                     Input for POLYMODE
     ==================================================

 ***************** cut here for POLYMODE input *****************
  1,  1,  1,  1,  1,  0,  0,  5,  0
SCF-CI
          Input generated by DiNa
  1, 1,  0.574326D-04 /
  1, 1, 1, 0.651518D-06 /
  1, 1, 1, 1, 0.431705D-08 /
 0.505953D-13,0.570059D+05,0.570059D+05 /
 ***************** cut here for POLYMODE input *****************

     ==================================================
          Derivatives of the Inertia Moments w.r.t
                Normal modes (in amu^1/2.Ang)
     ==================================================

              Ixx        Ixy        Iyy        Ixz        Iyz        Izz
 Q(  1)    -0.02588   -0.39050   -5.89261    0.00000   -0.00000   -5.91849

     ==================================================
               Vibro-rotational Alpha Matrix
     ==================================================

 Vibro-Rot alpha Matrix (in cm^-1)
 ---------------------------------
                a(x)           b(y)           c(z)
 Q( 1)******************************       -0.00000

 Vibro-Rot alpha Matrix (in MHz)
 -------------------------------
                 a              b              c 
 Q( 1)******************************       -0.00000

     ==================================================
          Quartic Centrifugal Distortion Constants
     ==================================================

 NOTE: Values in Cartesian coords. refer to the structure in Input orientation


 Quartic Centrifugal Distortion Constants Tau Prime
 --------------------------------------------------
                      cm^-1                    MHz
 TauP aaaa     -0.6355611557D+63        -0.1905364411D+68
 TauP bbaa     -0.3420030041D+30        -0.1025299212D+35
 TauP bbbb     -0.2044843080D-04        -0.6130285333D+00
 cm-1                       MHz
 De    0.1588902889D+63         0.4763411027D+67

     ==================================================
           Sextic Centrifugal Distortion Constants
     ==================================================


 Sextic Distortion Constants
 ---------------------------
                       in cm-1                  in Hz
 Phi aaa         0.3934427103+125         0.1179511572+136
 Phi aab         0.3475378305-316         0.0000000000D+00
 Phi abb                      NaN                      NaN
 Phi bbb         0.2270572969D+24         0.6807006514D+34

 Linear molecule
 ---------------
                       cm^-1                    Hz
 He               0.3934427103+125         0.1179511572+136

     ==================================================
       Average Coordinates and Mean Square Amplitudes
     ==================================================

 NOTE: Temperature is given in K between parentheses
       For Cartesian and internal coords., units are given between
       parentheses next to each label

 Mean Square Amplitudes of Normal Coordinates (in amu.bohr^2)
 -----------------------------------------------------------
 Mode    <Q^2> (0)    <Q^2> (298.15)    <Q^2> (298.15) class.
    1     0.025593       0.025593          0.178020

 Average Normal Coordinates (in amu^1/2.bohr)
 --------------------------------------------
 Mode    <Q> (0)       <Q> (298.15)
    1    -0.018593       -0.018594

 Mean Square Amplitudes of Cartesian Coordinates
 -----------------------------------------------
    Label        <(S-Se)^2>^1/2 (0)    <(S-Se)^2>^1/2 (298.15)
 X(1)  (Angs)        0.015962              0.015962
 Y(1)  (Angs)        0.001058              0.001058
 Z(1)  (Angs)        0.000000              0.000000
 X(2)  (Angs)        0.015962              0.015962
 Y(2)  (Angs)        0.001058              0.001058
 Z(2)  (Angs)        0.000000              0.000000

 Average Cartesian Coordinates
 -----------------------------
    Label              Se         <S> = Sz (0)   <S> = Sz (298.15)
 X(1)  (Angs)      -2.400084       -2.401939       -2.401939
 Y(1)  (Angs)      -0.161603       -0.161480       -0.161480
 Z(1)  (Angs)       0.000000        0.000000        0.000000
 X(2)  (Angs)      -1.284165       -1.282310       -1.282310
 Y(2)  (Angs)      -0.235554       -0.235677       -0.235677
 Z(2)  (Angs)       0.000000        0.000000        0.000000

 Internal coordinates for the Equilibrium structure (Se)
                           Interatomic distances:
                    1          2
     1  N    0.000000
     2  N    1.118367   0.000000

 Internal coordinates for the vibrationally average structure at 0K (Sz)
                           Interatomic distances:
                    1          2
     1  N    0.000000
     2  N    1.122085   0.000000

 Internal coordinates for the vibr. average structure at 298.15K (Sa)
                           Interatomic distances:
                    1          2
     1  N    0.000000
     2  N    1.122085   0.000000

     ==================================================
      Vibrational Average of Electric-Field Properties
     ==================================================

 Electric dipole
 ---------------
 ------------------------------------------------------------------------
  Property at reference geometry, Unit: Debye
 ------------------------------------------------------------------------
    X=    -0.0000    Y=     0.0000    Z=    -0.0000
 ------------------------------------------------------------------------
  Temperature:     0K, Unit: Debye
 ------------------------------------------------------------------------
    X=    -0.0000    Y=     0.0000    Z=     0.0000
 ------------------------------------------------------------------------
  Temperature:   298K, Unit: Debye
 ------------------------------------------------------------------------
    X=    -0.0000    Y=     0.0000    Z=     0.0000

     ==================================================
          Nuclear Magnetic Resonance Spectroscopy
     ==================================================

 Nuclear quadrupole tensors
 --------------------------
 ------------------------------------------------------------------------
  Property at reference geometry
 ------------------------------------------------------------------------
              Nuclear Quadrupole in Principal Axis System
       Atom             a.u.   MegaHertz   Gauss  10(-4) cm-1        Axes
              Baa    -0.4315   -16.643    -5.939    -5.551  0.0005  0.0072  1.0000
     1 N(14)  Bbb    -0.4315   -16.643    -5.939    -5.551  0.0661  0.9978 -0.0072
              Bcc     0.8630    33.286    11.877    11.103  0.9978 -0.0661  0.0000
 
              Baa    -0.4315   -16.643    -5.939    -5.551  0.0008  0.0114  0.9999
     2 N(14)  Bbb    -0.4315   -16.643    -5.939    -5.551  0.0661  0.9977 -0.0114
              Bcc     0.8630    33.286    11.877    11.103  0.9978 -0.0661  0.0000
 
 ------------------------------------------------------------------------
  Temperature:     0K
 ------------------------------------------------------------------------
              Nuclear Quadrupole in Principal Axis System
       Atom             a.u.   MegaHertz   Gauss  10(-4) cm-1        Axes
              Baa    -0.4289   -16.543    -5.903    -5.518  0.0661  0.9978 -0.0039
     1 N(14)  Bbb    -0.4289   -16.543    -5.903    -5.518  0.0003  0.0039  1.0000
              Bcc     0.8578    33.085    11.806    11.036  0.9978 -0.0661 -0.0000
 
              Baa    -0.4289   -16.543    -5.903    -5.518  0.0661  0.9977 -0.0143
     2 N(14)  Bbb    -0.4289   -16.543    -5.903    -5.518  0.0009  0.0143  0.9999
              Bcc     0.8578    33.085    11.806    11.036  0.9978 -0.0661  0.0000
 
 ------------------------------------------------------------------------
  Temperature:   298K
 ------------------------------------------------------------------------
              Nuclear Quadrupole in Principal Axis System
       Atom             a.u.   MegaHertz   Gauss  10(-4) cm-1        Axes
              Baa    -0.4289   -16.543    -5.903    -5.518  0.0661  0.9978 -0.0039
     1 N(14)  Bbb    -0.4289   -16.543    -5.903    -5.518  0.0003  0.0039  1.0000
              Bcc     0.8578    33.085    11.806    11.036  0.9978 -0.0661 -0.0000
 
              Baa    -0.4289   -16.543    -5.903    -5.518  0.0661  0.9977 -0.0142
     2 N(14)  Bbb    -0.4289   -16.543    -5.903    -5.518  0.0009  0.0142  0.9999
              Bcc     0.8578    33.085    11.806    11.036  0.9978 -0.0661  0.0000
 

     ==================================================
                     Resonance Analysis
     ==================================================

 Thresholds
 ----------
 Maximum Difference PT2 vs. Variational (cm-1) :      1.000
 Minimum value for Darling-Dennison term (cm-1):     10.000

 Fermi resonances
 ----------------
  No Fermi resonance found

 Darling-Dennison resonances
 ---------------------------
  No Darling-Dennison resonance found

     ==================================================
                     Anharmonic X Matrix
     ==================================================

 PT2 model: Deperturbed VPT2 (DVPT2)
 Ref.: V. Barone, J. Chem. Phys. 122, 1, 014108 (2005)

 Coriolis contributions to X Matrix (in cm^-1)
 ---------------------------------------------
                1
      1  0.000000D+00

 3rd Deriv. contributions to X Matrix (in cm^-1)
 -----------------------------------------------
                1
      1 -0.264784D+02

 4th Deriv. contributions to X Matrix (in cm^-1)
 -----------------------------------------------
                1
      1  0.123730D+02

 Total Anharmonic X Matrix (in cm^-1)
 ------------------------------------
                1
      1 -0.141054D+02

     ==================================================
                Anharmonic Zero Point Energy
     ==================================================

 Anharmonic Zero Point Energy
 ----------------------------
 Harmonic       : cm-1 =  1176.11176 ; Kcal/mol =   3.363 ; KJ/mol =  14.069
 Anharm.Pot.    : cm-1 =    -3.52226 ; Kcal/mol =  -0.010 ; KJ/mol =  -0.042
 Watson+Coriolis: cm-1 =     0.00000 ; Kcal/mol =   0.000 ; KJ/mol =   0.000
 X0F (Im. Freq.): cm-1 =     0.00000 ; Kcal/mol =   0.000 ; KJ/mol =   0.000
 Total Anharm   : cm-1 =  1172.58950 ; Kcal/mol =   3.353 ; KJ/mol =  14.027

     ==================================================
          Vibrational Energies at Anharmonic Level
     ==================================================

 Vibrational Energies and Rotational Constants (in cm^-1)
 --------------------------------------------------------
 Mode(Quanta)      E(harm)     E(anharm)     Aa(x)       Ba(y)       Ca(z)
 Equilibrium Geometry                        1.925017    1.925017    0.000000
 Ground State       1176.112    1172.590   *********** ***********    0.000000
 Fundamental Bands (DE w.r.t. Ground State)
   1(1) active      2352.224    2324.013  *********** ***********    0.000000
 Overtones (DE w.r.t. Ground State)
   1(2)             4704.447    4619.815  *********** ***********    0.000000
 Combination Bands (DE w.r.t. Ground State)

     ==================================================
               Anharmonic Transition Moments
     ==================================================

 Electric dipole : Fundamental Bands
 ------------------------------------------------------------------------
  Mode(Quanta)             X                 Y                 Z
    1(1)               -0.254652E-14      0.168679E-15     -0.116438E-17

 Electric dipole : Overtones
 ------------------------------------------------------------------------
  Mode(Quanta)             X                 Y                 Z
    1(2)               -0.139104E-15      0.921413E-17     -0.636045E-19

 Electric dipole : Combination Bands
 ------------------------------------------------------------------------
  Mode(Quanta)             X                 Y                 Z
 ERROR: Missing derivatives of the polarizability tensor moment.

     ==================================================
              Anharmonic Infrared Spectroscopy
     ==================================================

 Units: Energies (E) in cm^-1
        Integrated intensity (I) in km.mol^-1

 Fundamental Bands
 -----------------
    Mode(Quanta)       E(harm)   E(anharm)       I(harm)        I(anharm)
     1(1)              2352.224   2324.013      0.00000000      0.00000000

 Overtones
 ---------
    Mode(Quanta)       E(harm)   E(anharm)                      I(anharm)
     1(2)              4704.447   4619.815                      0.00000000

 Combination Bands
 -----------------
    Mode(Quanta)       E(harm)   E(anharm)                      I(anharm)

 Leave Link  717 at Fri Sep 20 13:12:12 2019, MaxMem=   134217728 cpu:         0.0
 (Enter /soft/gaussian/09-e.01/g09/l103.exe)

 GradGradGradGradGradGradGradGradGradGradGradGradGradGradGradGradGradGrad
 Berny optimization.
 Red2BG is reusing G-inverse.
 Internal  Forces:  Max     0.000000004 RMS     0.000000004
 Search for a local minimum.
 Step number   1 out of a maximum of    2
 All quantities printed in internal units (Hartrees-Bohrs-Radians)
 Second derivative matrix not updated -- analytic derivatives used.
 The second derivative matrix:
                          R1
           R1           1.46603
 ITU=  0
     Eigenvalues ---    1.46603
 Angle between quadratic step and forces=  90.00 degrees.
 Linear search not attempted -- first point.
 Iteration  1 RMS(Cart)=  0.00000000 RMS(Int)=  0.00000000
 ITry= 1 IFail=0 DXMaxC= 1.49D-09 DCOld= 1.00D+10 DXMaxT= 3.00D-01 DXLimC= 3.00D+00 Rises=F
 ClnCor:  largest displacement from symmetrization is 8.88D-16 for atom     1.
 Variable       Old X    -DE/DX   Delta X   Delta X   Delta X     New X
                                 (Linear)    (Quad)   (Total)
    R1        2.11341   0.00000   0.00000   0.00000   0.00000   2.11341
         Item               Value     Threshold  Converged?
 Maximum Force            0.000000     0.000450     YES
 RMS     Force            0.000000     0.000300     YES
 Maximum Displacement     0.000000     0.001800     YES
 RMS     Displacement     0.000000     0.001200     YES
 Predicted change in Energy=-6.560139D-18
 Optimization completed.
    -- Stationary point found.
                           ----------------------------
                           !   Optimized Parameters   !
                           ! (Angstroms and Degrees)  !
 --------------------------                            --------------------------
 ! Name  Definition              Value          Derivative Info.                !
 --------------------------------------------------------------------------------
 ! R1    R(1,2)                  1.1184         -DE/DX =    0.0                 !
 --------------------------------------------------------------------------------
 GradGradGradGradGradGradGradGradGradGradGradGradGradGradGradGradGradGrad

 Leave Link  103 at Fri Sep 20 13:12:12 2019, MaxMem=   134217728 cpu:         0.1
 (Enter /soft/gaussian/09-e.01/g09/l9999.exe)
 1\1\GINC-B460\Freq\RB3LYP\6-31G\N2\KMOORE\20-Sep-2019\0\\#P Geom=AllCh
 eck Guess=TCheck SCRF=Check GenChk RB3LYP/6-31G Freq\\comment:\\0,1\N,
 -2.4000840753,-0.1616027479,0.\N,-1.2841648215,-0.2355543487,0.\\Versi
 on=ES64L-G09RevE.01\State=1-SGG\HF=-109.4710409\RMSD=0.000e+00\RMSF=2.
 532e-09\ZeroPoint=0.0053588\Thermal=0.0077194\Dipole=0.,0.,0.\DipoleDe
 riv=0.,0.,0.,0.,0.,0.,0.,0.,0.,0.,0.,0.,0.,0.,0.,0.,0.,0.\Polar=13.676
 7947,-0.5572049,5.3055772,0.,0.,5.2686514\Quadrupole=-1.1122384,0.5524
 477,0.5597907,0.1108048,0.,0.\PG=D*H [C*(N1.N1)]\NImag=0\\1.45961706,-
 0.09672725,0.00642656,0.,0.,0.00001648,-1.45961706,0.09672725,0.,1.459
 61706,0.09672725,-0.00642656,0.,-0.09672725,0.00642656,0.,0.,-0.000016
 48,0.,0.,0.00001648\\0.,0.,0.,0.,0.,0.\\2.11969513,-0.15784981,-0.2517
 7567,0.,0.,-0.26223632,-2.11969513,0.15784981,0.,2.11969513,0.15784981
 ,0.25177567,0.,-0.15784981,-0.25177567,0.,0.,0.26223632,0.,0.,-0.26223
 632,2.39790591,-0.19044676,-0.46328807,0.,0.,-0.47590892,-2.39790590,0
 .19044676,0.,2.39790591,0.19044676,0.46328809,0.,-0.19044676,-0.463288
 08,0.,0.,0.47590893,0.,0.,-0.47590893\\@


 HE WHO LOVES TO READ, AND KNOWS HOW TO REFLECT,
 HAS LAID BY A PERPETUAL FEAST FOR HIS OLD AGE.
 -- UNCLE ESEK, "SCRIBNER'S MONTHLY", SEPT. 1880
 Job cpu time:       0 days  0 hours  0 minutes  6.0 seconds.
 File lengths (MBytes):  RWF=     43 Int=      0 D2E=      0 Chk=     38 Scr=      1
 Normal termination of Gaussian 09 at Fri Sep 20 13:12:12 2019.
