 Entering Gaussian System, Link 0=g09
 Input=/lcrc/project/CMRP/mechanisms/2_Species/new/b2/CH2O/C=O_m1/opt/b2plypd3/cc-pvtz/gaussian/anharm/b2plypd3/cc-pvtz/gaussian/CH2O.inp
 Output=/lcrc/project/CMRP/mechanisms/2_Species/new/b2/CH2O/C=O_m1/opt/b2plypd3/cc-pvtz/gaussian/anharm/b2plypd3/cc-pvtz/gaussian/CH2O.out
 Initial command:
 /soft/gaussian/09-e.01/g09/l1.exe "/lcrc/project/CMRP/mechanisms/2_Species/new/b2/CH2O/C=O_m1/opt/b2plypd3/cc-pvtz/gaussian/anharm/b2plypd3/cc-pvtz/gaussian/Gau-75439.inp" -scrdir="/lcrc/project/CMRP/mechanisms/2_Species/new/b2/CH2O/C=O_m1/opt/b2plypd3/cc-pvtz/gaussian/anharm/b2plypd3/cc-pvtz/gaussian/"
 Entering Link 1 = /soft/gaussian/09-e.01/g09/l1.exe PID=     75440.
  
 Copyright (c) 1988,1990,1992,1993,1995,1998,2003,2009,2015,
            Gaussian, Inc.  All Rights Reserved.
  
 This is part of the Gaussian(R) 09 program.  It is based on
 the Gaussian(R) 03 system (copyright 2003, Gaussian, Inc.),
 the Gaussian(R) 98 system (copyright 1998, Gaussian, Inc.),
 the Gaussian(R) 94 system (copyright 1995, Gaussian, Inc.),
 the Gaussian 92(TM) system (copyright 1992, Gaussian, Inc.),
 the Gaussian 90(TM) system (copyright 1990, Gaussian, Inc.),
 the Gaussian 88(TM) system (copyright 1988, Gaussian, Inc.),
 the Gaussian 86(TM) system (copyright 1986, Carnegie Mellon
 University), and the Gaussian 82(TM) system (copyright 1983,
 Carnegie Mellon University). Gaussian is a federally registered
 trademark of Gaussian, Inc.
  
 This software contains proprietary and confidential information,
 including trade secrets, belonging to Gaussian, Inc.
  
 This software is provided under written license and may be
 used, copied, transmitted, or stored only in accord with that
 written license.
  
 The following legend is applicable only to US Government
 contracts under FAR:
  
                    RESTRICTED RIGHTS LEGEND
  
 Use, reproduction and disclosure by the US Government is
 subject to restrictions as set forth in subparagraphs (a)
 and (c) of the Commercial Computer Software - Restricted
 Rights clause in FAR 52.227-19.
  
 Gaussian, Inc.
 340 Quinnipiac St., Bldg. 40, Wallingford CT 06492
  
  
 ---------------------------------------------------------------
 Warning -- This program may not be used in any manner that
 competes with the business of Gaussian, Inc. or will provide
 assistance to any competitor of Gaussian, Inc.  The licensee
 of this program is prohibited from giving any competitor of
 Gaussian, Inc. access to this program.  By using this program,
 the user acknowledges that Gaussian, Inc. is engaged in the
 business of creating and licensing software in the field of
 computational chemistry and represents and warrants to the
 licensee that it is not a competitor of Gaussian, Inc. and that
 it will not use this program in any manner prohibited above.
 ---------------------------------------------------------------
  

 Cite this work as:
 Gaussian 09, Revision E.01,
 M. J. Frisch, G. W. Trucks, H. B. Schlegel, G. E. Scuseria, 
 M. A. Robb, J. R. Cheeseman, G. Scalmani, V. Barone, B. Mennucci, 
 G. A. Petersson, H. Nakatsuji, M. Caricato, X. Li, H. P. Hratchian, 
 A. F. Izmaylov, J. Bloino, G. Zheng, J. L. Sonnenberg, M. Hada, 
 M. Ehara, K. Toyota, R. Fukuda, J. Hasegawa, M. Ishida, T. Nakajima, 
 Y. Honda, O. Kitao, H. Nakai, T. Vreven, J. A. Montgomery, Jr., 
 J. E. Peralta, F. Ogliaro, M. Bearpark, J. J. Heyd, E. Brothers, 
 K. N. Kudin, V. N. Staroverov, T. Keith, R. Kobayashi, J. Normand, 
 K. Raghavachari, A. Rendell, J. C. Burant, S. S. Iyengar, J. Tomasi, 
 M. Cossi, N. Rega, J. M. Millam, M. Klene, J. E. Knox, J. B. Cross, 
 V. Bakken, C. Adamo, J. Jaramillo, R. Gomperts, R. E. Stratmann, 
 O. Yazyev, A. J. Austin, R. Cammi, C. Pomelli, J. W. Ochterski, 
 R. L. Martin, K. Morokuma, V. G. Zakrzewski, G. A. Voth, 
 P. Salvador, J. J. Dannenberg, S. Dapprich, A. D. Daniels, 
 O. Farkas, J. B. Foresman, J. V. Ortiz, J. Cioslowski, 
 and D. J. Fox, Gaussian, Inc., Wallingford CT, 2013.
 
 ******************************************
 Gaussian 09:  ES64L-G09RevE.01 30-Nov-2015
                26-Jun-2019 
 ******************************************
 %mem=2056MW
 %nproc=6
 Will use up to    6 processors via shared memory.
 ----------------------------------------------------------------------
 #P b2plypd3/cc-pvtz opt=(maxcyc=50,internal) freq=(anharm,vibrot) int=
 ultrafine nosym
 ----------------------------------------------------------------------
 1/6=50,10=7,18=40,38=1,80=1/1,3;
 2/12=2,15=1,17=6,18=5,29=3,40=1/2;
 3/5=16,6=1,11=9,16=1,25=1,30=1,71=1,74=-60,75=-5/1,2,3;
 4//1;
 5/5=2,38=5/2;
 8/6=4,10=1/1;
 9/15=2,16=-3/6;
 10/5=1,31=1/2;
 6/7=2,8=2,9=2,10=2/1;
 7/12=2,29=1,30=1/1,2,3,16;
 1/6=50,10=7,18=40,80=1/3(2);
 2/15=1,29=3/2;
 99/8=1100/99;
 2/15=1,29=3/2;
 3/5=16,6=1,11=9,16=1,25=1,30=1,71=1,74=-60,75=-5/1,2,3;
 4/5=5,16=3,69=1/1;
 5/5=2,38=5/2;
 8/6=4,10=1/1;
 9/15=2,16=-3/6;
 10/5=1,31=1/2;
 7/12=2,30=1/1,2,3,16;
 1/6=50,18=40,80=1/3(-8);
 2/15=1,29=3/2;
 6/7=2,8=2,9=2,10=2/1;
 99/8=1100/99;
 Leave Link    1 at Wed Jun 26 12:24:25 2019, MaxMem=  2155872256 cpu:         0.6
 (Enter /soft/gaussian/09-e.01/g09/l101.exe)
 ---
 C=O
 ---
 Symbolic Z-matrix:
 Charge =  0 Multiplicity = 1
 c
 o                    1    r1
 h                    1    r2       2    a2
 h                    1    r3       2    a3       3    d3       0
       Variables:
  r1                    1.2038                   
  r2                    1.103                    
  a2                  122.069                    
  r3                    1.103                    
  a3                  122.069                    
  d3                  180.007                    
 
 NAtoms=      4 NQM=        4 NQMF=       0 NMMI=      0 NMMIF=      0
                NMic=       0 NMicF=      0.
                    Isotopes and Nuclear Properties:
 (Nuclear quadrupole moments (NQMom) in fm**2, nuclear magnetic moments (NMagM)
  in nuclear magnetons)

  Atom         1           2           3           4
 IAtWgt=          12          16           1           1
 AtmWgt=  12.0000000  15.9949146   1.0078250   1.0078250
 NucSpn=           0           0           1           1
 AtZEff=   0.0000000   0.0000000   0.0000000   0.0000000
 NQMom=    0.0000000   0.0000000   0.0000000   0.0000000
 NMagM=    0.0000000   0.0000000   2.7928460   2.7928460
 AtZNuc=   6.0000000   8.0000000   1.0000000   1.0000000
 Leave Link  101 at Wed Jun 26 12:24:25 2019, MaxMem=  2155872256 cpu:         0.3
 (Enter /soft/gaussian/09-e.01/g09/l103.exe)

 GradGradGradGradGradGradGradGradGradGradGradGradGradGradGradGradGradGrad
 Berny optimization.
 Initialization pass.
                       ----------------------------
                       !    Initial Parameters    !
                       ! (Angstroms and Degrees)  !
 ----------------------                            ----------------------
 !      Name          Value   Derivative information (Atomic Units)     !
 ------------------------------------------------------------------------
 !       r1          1.2038   estimate D2E/DX2                          !
 !       r2          1.103    estimate D2E/DX2                          !
 !       a2        122.069    estimate D2E/DX2                          !
 !       r3          1.103    estimate D2E/DX2                          !
 !       a3        122.069    estimate D2E/DX2                          !
 !       d3        180.007    estimate D2E/DX2                          !
 ------------------------------------------------------------------------
 Trust Radius=3.00D-01 FncErr=1.00D-07 GrdErr=1.00D-07
 Number of steps in this run=     50 maximum allowed number of steps=    100.
 GradGradGradGradGradGradGradGradGradGradGradGradGradGradGradGradGradGrad

 Leave Link  103 at Wed Jun 26 12:24:25 2019, MaxMem=  2155872256 cpu:         0.1
 (Enter /soft/gaussian/09-e.01/g09/l202.exe)
 ---------------------------------------------------------------------------------------------------
                            Z-MATRIX (ANGSTROMS AND DEGREES)
   CD    Cent   Atom    N1       Length/X        N2       Alpha/Y        N3        Beta/Z          J
 ---------------------------------------------------------------------------------------------------
      1      1  C 
      2      2  O        1   1.203800(     1)
      3      3  H        1   1.103000(     2)      2  122.069(     4)
      4      4  H        1   1.103000(     3)      2  122.069(     5)      3  180.007(     6)      0
 ---------------------------------------------------------------------------------------------------
                         Z-Matrix orientation:                         
 ---------------------------------------------------------------------
 Center     Atomic      Atomic             Coordinates (Angstroms)
 Number     Number       Type             X           Y           Z
 ---------------------------------------------------------------------
      1          6           0        0.000000    0.000000    0.000000
      2          8           0        0.000000    0.000000    1.203800
      3          1           0        0.934692    0.000000   -0.585627
      4          1           0       -0.934692    0.000114   -0.585627
 ---------------------------------------------------------------------
                    Distance matrix (angstroms):
                    1          2          3          4
     1  C    0.000000
     2  O    1.203800   0.000000
     3  H    1.103000   2.018836   0.000000
     4  H    1.103000   2.018836   1.869385   0.000000
 Symmetry turned off by external request.
 Stoichiometry    CH2O
 Framework group  CS[SG(CO),X(H2)]
 Deg. of freedom     4
 Full point group                 CS      NOp   2
 Rotational constants (GHZ):    286.9885493     38.9213982     34.2732577
 Leave Link  202 at Wed Jun 26 12:24:25 2019, MaxMem=  2155872256 cpu:         0.1
 (Enter /soft/gaussian/09-e.01/g09/l301.exe)
 Standard basis: CC-pVTZ (5D, 7F)
 Ernie: Thresh=  0.10000D-02 Tol=  0.10000D-05 Strict=F.
 Ernie:  6 primitive shells out of 68 were deleted.
    88 basis functions,   138 primitive gaussians,   100 cartesian basis functions
     8 alpha electrons        8 beta electrons
       nuclear repulsion energy        31.3344065983 Hartrees.
 IExCor=  419 DFT=T Ex+Corr=B2PLYPD3 ExCW=0 ScaHFX=  0.530000
 ScaDFX=  0.470000  0.470000  0.730000  0.730000 ScalE2=  0.270000  0.270000
 IRadAn=      5 IRanWt=     -1 IRanGd=            0 ICorTp=0 IEmpDi=141
 NAtoms=    4 NActive=    4 NUniq=    4 SFac= 1.00D+00 NAtFMM=   60 NAOKFM=F Big=F
 Integral buffers will be    131072 words long.
 Regular integral format.
 Two-electron integral symmetry is turned off.
 R6Disp:  Grimme-D3(BJ) Dispersion energy=       -0.0007828046 Hartrees.
 Nuclear repulsion after empirical dispersion term =       31.3336237938 Hartrees.
 Leave Link  301 at Wed Jun 26 12:24:25 2019, MaxMem=  2155872256 cpu:         0.4
 (Enter /soft/gaussian/09-e.01/g09/l302.exe)
 NPDir=0 NMtPBC=     1 NCelOv=     1 NCel=       1 NClECP=     1 NCelD=      1
         NCelK=      1 NCelE2=     1 NClLst=     1 CellRange=     0.0.
 One-electron integrals computed using PRISM.
 NBasis=    88 RedAO= T EigKep=  2.33D-03  NBF=    88
 NBsUse=    88 1.00D-06 EigRej= -1.00D+00 NBFU=    88
 Precomputing XC quadrature grid using
 IXCGrd= 4 IRadAn=           5 IRanWt=          -1 IRanGd=           0 AccXCQ= 0.00D+00.
 Generated NRdTot=       0 NPtTot=           0 NUsed=           0 NTot=          32
 NSgBfM=   100   100   100   100   100 MxSgAt=     4 MxSgA2=     4.
 Leave Link  302 at Wed Jun 26 12:24:25 2019, MaxMem=  2155872256 cpu:         1.1
 (Enter /soft/gaussian/09-e.01/g09/l303.exe)
 DipDrv:  MaxL=1.
 Leave Link  303 at Wed Jun 26 12:24:25 2019, MaxMem=  2155872256 cpu:         0.1
 (Enter /soft/gaussian/09-e.01/g09/l401.exe)
 ExpMin= 1.03D-01 ExpMax= 1.53D+04 ExpMxC= 5.22D+02 IAcc=3 IRadAn=         5 AccDes= 0.00D+00
 Harris functional with IExCor=  419 and IRadAn=       5 diagonalized for initial guess.
 HarFok:  IExCor=  419 AccDes= 0.00D+00 IRadAn=         5 IDoV= 1 UseB2=F ITyADJ=14
 ICtDFT=  3500011 ScaDFX=  1.000000  1.000000  1.000000  1.000000
 FoFCou: FMM=F IPFlag=           0 FMFlag=      100000 FMFlg1=           0
         NFxFlg=           0 DoJE=T BraDBF=F KetDBF=T FulRan=T
         wScrn=  0.000000 ICntrl=     500 IOpCl=  0 I1Cent=   200000004 NGrid=           0
         NMat0=    1 NMatS0=      1 NMatT0=    0 NMatD0=    1 NMtDS0=    0 NMtDT0=    0
 Symmetry not used in FoFCou.
 Harris En= -114.563337345920    
 JPrj=0 DoOrth=F DoCkMO=F.
 Leave Link  401 at Wed Jun 26 12:24:25 2019, MaxMem=  2155872256 cpu:         1.9
 (Enter /soft/gaussian/09-e.01/g09/l502.exe)
 Closed shell SCF:
 Using DIIS extrapolation, IDIIS=  1040.
 Two-electron integral symmetry not used.
 Keep R1 ints in memory in canonical form, NReq=9698406.
 IVT=       49758 IEndB=       49758 NGot=  2155872256 MDV=  2148153013
 LenX=  2148153013 LenY=  2148142572
 Requested convergence on RMS density matrix=1.00D-08 within 128 cycles.
 Requested convergence on MAX density matrix=1.00D-06.
 Requested convergence on             energy=1.00D-06.
 No special actions if energy rises.
 FoFCou: FMM=F IPFlag=           0 FMFlag=           0 FMFlg1=           0
         NFxFlg=           0 DoJE=F BraDBF=F KetDBF=F FulRan=T
         wScrn=  0.000000 ICntrl=     600 IOpCl=  0 I1Cent=           0 NGrid=           0
         NMat0=    1 NMatS0=   3916 NMatT0=    0 NMatD0=    1 NMtDS0=    0 NMtDT0=    0
 Symmetry not used in FoFCou.
 Integral accuracy reduced to 1.0D-05 until final iterations.

 Cycle   1  Pass 0  IDiag  1:
 E= -114.271682438753    
 DIIS: error= 5.11D-02 at cycle   1 NSaved=   1.
 NSaved= 1 IEnMin= 1 EnMin= -114.271682438753     IErMin= 1 ErrMin= 5.11D-02
 ErrMax= 5.11D-02  0.00D+00 EMaxC= 1.00D-01 BMatC= 1.04D-01 BMatP= 1.04D-01
 IDIUse=3 WtCom= 4.89D-01 WtEn= 5.11D-01
 Coeff-Com:  0.100D+01
 Coeff-En:   0.100D+01
 Coeff:      0.100D+01
 Gap=     0.326 Goal=   None    Shift=    0.000
 GapD=    0.326 DampG=1.000 DampE=0.500 DampFc=0.5000 IDamp=-1.
 Damping current iteration by 5.00D-01
 RMSDP=4.46D-03 MaxDP=5.92D-02              OVMax= 1.88D-01

 Cycle   2  Pass 0  IDiag  1:
 E= -114.297060233405     Delta-E=       -0.025377794652 Rises=F Damp=T
 DIIS: error= 9.71D-03 at cycle   2 NSaved=   2.
 NSaved= 2 IEnMin= 2 EnMin= -114.297060233405     IErMin= 2 ErrMin= 9.71D-03
 ErrMax= 9.71D-03  0.00D+00 EMaxC= 1.00D-01 BMatC= 1.04D-02 BMatP= 1.04D-01
 IDIUse=3 WtCom= 9.03D-01 WtEn= 9.71D-02
 Coeff-Com:  0.464D-01 0.954D+00
 Coeff-En:   0.146D+00 0.854D+00
 Coeff:      0.560D-01 0.944D+00
 Gap=     0.374 Goal=   None    Shift=    0.000
 RMSDP=9.40D-04 MaxDP=1.40D-02 DE=-2.54D-02 OVMax= 1.27D-01

 Cycle   3  Pass 0  IDiag  1:
 E= -114.331056630312     Delta-E=       -0.033996396907 Rises=F Damp=F
 DIIS: error= 9.37D-03 at cycle   3 NSaved=   3.
 NSaved= 3 IEnMin= 3 EnMin= -114.331056630312     IErMin= 3 ErrMin= 9.37D-03
 ErrMax= 9.37D-03  0.00D+00 EMaxC= 1.00D-01 BMatC= 3.93D-03 BMatP= 1.04D-02
 IDIUse=3 WtCom= 9.06D-01 WtEn= 9.37D-02
 Coeff-Com: -0.941D-01 0.348D+00 0.746D+00
 Coeff-En:   0.000D+00 0.000D+00 0.100D+01
 Coeff:     -0.853D-01 0.315D+00 0.770D+00
 Gap=     0.358 Goal=   None    Shift=    0.000
 RMSDP=3.80D-04 MaxDP=7.78D-03 DE=-3.40D-02 OVMax= 3.18D-02

 Cycle   4  Pass 0  IDiag  1:
 E= -114.333798369539     Delta-E=       -0.002741739227 Rises=F Damp=F
 DIIS: error= 3.35D-03 at cycle   4 NSaved=   4.
 NSaved= 4 IEnMin= 4 EnMin= -114.333798369539     IErMin= 4 ErrMin= 3.35D-03
 ErrMax= 3.35D-03  0.00D+00 EMaxC= 1.00D-01 BMatC= 4.27D-04 BMatP= 3.93D-03
 IDIUse=3 WtCom= 9.67D-01 WtEn= 3.35D-02
 Coeff-Com: -0.219D-01 0.227D-01 0.297D+00 0.702D+00
 Coeff-En:   0.000D+00 0.000D+00 0.210D-01 0.979D+00
 Coeff:     -0.211D-01 0.220D-01 0.288D+00 0.711D+00
 Gap=     0.362 Goal=   None    Shift=    0.000
 RMSDP=1.05D-04 MaxDP=2.38D-03 DE=-2.74D-03 OVMax= 5.40D-03

 Cycle   5  Pass 0  IDiag  1:
 E= -114.334137596990     Delta-E=       -0.000339227452 Rises=F Damp=F
 DIIS: error= 2.41D-04 at cycle   5 NSaved=   5.
 NSaved= 5 IEnMin= 5 EnMin= -114.334137596990     IErMin= 5 ErrMin= 2.41D-04
 ErrMax= 2.41D-04  0.00D+00 EMaxC= 1.00D-01 BMatC= 1.97D-06 BMatP= 4.27D-04
 IDIUse=3 WtCom= 9.98D-01 WtEn= 2.41D-03
 Coeff-Com:  0.161D-02-0.780D-02 0.969D-02 0.540D-01 0.943D+00
 Coeff-En:   0.000D+00 0.000D+00 0.000D+00 0.000D+00 0.100D+01
 Coeff:      0.161D-02-0.778D-02 0.966D-02 0.539D-01 0.943D+00
 Gap=     0.362 Goal=   None    Shift=    0.000
 RMSDP=2.57D-05 MaxDP=4.56D-04 DE=-3.39D-04 OVMax= 7.48D-04

 Cycle   6  Pass 0  IDiag  1:
 E= -114.334140487199     Delta-E=       -0.000002890209 Rises=F Damp=F
 DIIS: error= 6.87D-05 at cycle   6 NSaved=   6.
 NSaved= 6 IEnMin= 6 EnMin= -114.334140487199     IErMin= 6 ErrMin= 6.87D-05
 ErrMax= 6.87D-05  0.00D+00 EMaxC= 1.00D-01 BMatC= 1.81D-07 BMatP= 1.97D-06
 IDIUse=1 WtCom= 1.00D+00 WtEn= 0.00D+00
 Coeff-Com:  0.131D-02-0.130D-02-0.149D-01-0.475D-01-0.137D+00 0.120D+01
 Coeff:      0.131D-02-0.130D-02-0.149D-01-0.475D-01-0.137D+00 0.120D+01
 Gap=     0.363 Goal=   None    Shift=    0.000
 RMSDP=1.04D-05 MaxDP=1.88D-04 DE=-2.89D-06 OVMax= 3.82D-04

 Cycle   7  Pass 0  IDiag  1:
 E= -114.334140877021     Delta-E=       -0.000000389822 Rises=F Damp=F
 DIIS: error= 1.40D-05 at cycle   7 NSaved=   7.
 NSaved= 7 IEnMin= 7 EnMin= -114.334140877021     IErMin= 7 ErrMin= 1.40D-05
 ErrMax= 1.40D-05  0.00D+00 EMaxC= 1.00D-01 BMatC= 9.55D-09 BMatP= 1.81D-07
 IDIUse=1 WtCom= 1.00D+00 WtEn= 0.00D+00
 Coeff-Com: -0.304D-03 0.435D-03 0.369D-02 0.639D-02-0.612D-03-0.251D+00
 Coeff-Com:  0.124D+01
 Coeff:     -0.304D-03 0.435D-03 0.369D-02 0.639D-02-0.612D-03-0.251D+00
 Coeff:      0.124D+01
 Gap=     0.363 Goal=   None    Shift=    0.000
 RMSDP=1.61D-06 MaxDP=2.35D-05 DE=-3.90D-07 OVMax= 7.57D-05

 Initial convergence to 1.0D-05 achieved.  Increase integral accuracy.
 Cycle   8  Pass 1  IDiag  1:
 E= -114.334140321266     Delta-E=        0.000000555756 Rises=F Damp=F
 DIIS: error= 2.85D-06 at cycle   1 NSaved=   1.
 NSaved= 1 IEnMin= 1 EnMin= -114.334140321266     IErMin= 1 ErrMin= 2.85D-06
 ErrMax= 2.85D-06  0.00D+00 EMaxC= 1.00D-01 BMatC= 5.20D-10 BMatP= 5.20D-10
 IDIUse=1 WtCom= 1.00D+00 WtEn= 0.00D+00
 Coeff-Com:  0.100D+01
 Coeff:      0.100D+01
 Gap=     0.363 Goal=   None    Shift=    0.000
 RMSDP=1.61D-06 MaxDP=2.35D-05 DE= 5.56D-07 OVMax= 1.11D-05

 Cycle   9  Pass 1  IDiag  1:
 E= -114.334140321121     Delta-E=        0.000000000145 Rises=F Damp=F
 DIIS: error= 3.74D-06 at cycle   2 NSaved=   2.
 NSaved= 2 IEnMin= 1 EnMin= -114.334140321266     IErMin= 1 ErrMin= 2.85D-06
 ErrMax= 3.74D-06  0.00D+00 EMaxC= 1.00D-01 BMatC= 7.68D-10 BMatP= 5.20D-10
 IDIUse=1 WtCom= 1.00D+00 WtEn= 0.00D+00
 Coeff-Com:  0.551D+00 0.449D+00
 Coeff:      0.551D+00 0.449D+00
 Gap=     0.363 Goal=   None    Shift=    0.000
 RMSDP=1.61D-07 MaxDP=3.02D-06 DE= 1.45D-10 OVMax= 1.16D-05

 Cycle  10  Pass 1  IDiag  1:
 E= -114.334140321676     Delta-E=       -0.000000000555 Rises=F Damp=F
 DIIS: error= 4.33D-07 at cycle   3 NSaved=   3.
 NSaved= 3 IEnMin= 3 EnMin= -114.334140321676     IErMin= 3 ErrMin= 4.33D-07
 ErrMax= 4.33D-07  0.00D+00 EMaxC= 1.00D-01 BMatC= 1.60D-11 BMatP= 5.20D-10
 IDIUse=1 WtCom= 1.00D+00 WtEn= 0.00D+00
 Coeff-Com: -0.126D+00 0.461D-01 0.108D+01
 Coeff:     -0.126D+00 0.461D-01 0.108D+01
 Gap=     0.363 Goal=   None    Shift=    0.000
 RMSDP=3.66D-08 MaxDP=5.33D-07 DE=-5.55D-10 OVMax= 1.49D-06

 Cycle  11  Pass 1  IDiag  1:
 E= -114.334140321691     Delta-E=       -0.000000000015 Rises=F Damp=F
 DIIS: error= 1.50D-07 at cycle   4 NSaved=   4.
 NSaved= 4 IEnMin= 4 EnMin= -114.334140321691     IErMin= 4 ErrMin= 1.50D-07
 ErrMax= 1.50D-07  0.00D+00 EMaxC= 1.00D-01 BMatC= 9.59D-13 BMatP= 1.60D-11
 IDIUse=1 WtCom= 1.00D+00 WtEn= 0.00D+00
 Coeff-Com: -0.562D-01-0.497D-03 0.128D+00 0.929D+00
 Coeff:     -0.562D-01-0.497D-03 0.128D+00 0.929D+00
 Gap=     0.363 Goal=   None    Shift=    0.000
 RMSDP=8.68D-09 MaxDP=1.65D-07 DE=-1.51D-11 OVMax= 3.85D-07

 SCF Done:  E(RB2PLYPD3) =  -114.334140322     A.U. after   11 cycles
            NFock= 11  Conv=0.87D-08     -V/T= 2.0043
 KE= 1.138445571184D+02 PE=-3.314338782079D+02 EE= 7.192155697398D+01
 Leave Link  502 at Wed Jun 26 12:24:27 2019, MaxMem=  2155872256 cpu:         8.0
 (Enter /soft/gaussian/09-e.01/g09/l801.exe)
 DoSCS=T DFT=T ScalE2(SS,OS)=  0.270000  0.270000
 ExpMin= 1.03D-01 ExpMax= 1.53D+04 ExpMxC= 5.22D+02 IAcc=3 IRadAn=         5 AccDes= 0.00D+00
 HarFok:  IExCor=  205 AccDes= 0.00D+00 IRadAn=         5 IDoV=-2 UseB2=F ITyADJ=14
 ICtDFT= 12500011 ScaDFX=  1.000000  1.000000  1.000000  1.000000
 Largest valence mixing into a core orbital is  1.14D-04
 Largest core mixing into a valence orbital is  1.44D-05
 Range of M.O.s used for correlation:     3    88
 NBasis=    88 NAE=     8 NBE=     8 NFC=     2 NFV=     0
 NROrb=     86 NOA=     6 NOB=     6 NVA=    80 NVB=    80
 Leave Link  801 at Wed Jun 26 12:24:27 2019, MaxMem=  2155872256 cpu:         0.3
 (Enter /soft/gaussian/09-e.01/g09/l906.exe)
 DoSCS=T DFT=T ScalE2(SS,OS)=  0.270000  0.270000
 Frozen-core derivative calculation, NFC=   2 NFV=   0.
 FulOut=F Deriv=T AODrv=T NAtomX=     4
   MMem=        4097  MDisk=           6 MDiskD=           6
  W3Min=       70400 MinDsk=      215850 NBas6D=         100
 NBas2D=        5260    NTT=        5050    LW2=     3500000
    MDV=  2155767734 MDiskM=      107688 NBas2p=        5260
 Fully direct method using O(ONN) memory.
 IMap=   1   2   3   4   5   6   7   8
 JobTyp=1 Pass  1:  I=   3 to   8 NPSUse=  6 ParTrn=T ParDer=T DoDerP=T.
 Spin components of T(2) and E(2):
     alpha-alpha T2 =       0.2112178819D-01 E2=     -0.1573372951D-01
     alpha-beta  T2 =       0.1326037016D+00 E2=     -0.9848459298D-01
     beta-beta   T2 =       0.2112178819D-01 E2=     -0.1573372951D-01
 The integrals were generated   1 times.
 E2(B2PLYPD3) =    -0.1299520520D+00 E(B2PLYPD3) =    -0.11446409237368D+03
 Leave Link  906 at Wed Jun 26 12:24:28 2019, MaxMem=  2155872256 cpu:         5.6
 (Enter /soft/gaussian/09-e.01/g09/l1002.exe)
 Minotr:  Closed shell wavefunction.
          Computing MP2/KS-MP2 derivatives.
          Using Z-Vector for PSCF gradient.
          Skipping F1 and S1 gradient terms here.
          IDoAtm=1111
          Frozen-core window.
          Direct CPHF calculation.
          Differentiating once with respect to electric field.
                with respect to dipole field.
          Differentiating once with respect to nuclear coordinates.
          Requested convergence is 1.0D-10 RMS, and 1.0D-09 maximum.
          NewPWx=F KeepS1=T KeepF1=T KeepIn=T MapXYZ=F SortEE=F KeepMc=T.
          MDV=    2155872126 using IRadAn=       5.
 Using stored XC quadrature information.
 Keep R1 ints in memory in canonical form, NReq=9664443.
 FoFCou: FMM=F IPFlag=           0 FMFlag=           0 FMFlg1=           0
         NFxFlg=           0 DoJE=F BraDBF=F KetDBF=F FulRan=T
         wScrn=  0.000000 ICntrl=     600 IOpCl=  0 I1Cent=           0 NGrid=           0
         NMat0=    1 NMatS0=   3916 NMatT0=    0 NMatD0=    1 NMtDS0=    0 NMtDT0=    0
 Symmetry not used in FoFCou.
          Solving linear equations separately, MaxMat=       0.
          There are     1 degrees of freedom in the 1st order CPHF.  IDoFFX=0 NUNeed=     1.
 LinEq1:  Iter=  0 NonCon=     1 RMS=2.95D-03 Max=3.76D-02 NDo=     1
 AX will form     1 AO Fock derivatives at one time.
 LinEq1:  Iter=  1 NonCon=     1 RMS=1.27D-03 Max=1.81D-02 NDo=     1
 LinEq1:  Iter=  2 NonCon=     1 RMS=5.09D-04 Max=5.24D-03 NDo=     1
 LinEq1:  Iter=  3 NonCon=     1 RMS=2.36D-04 Max=2.82D-03 NDo=     1
 LinEq1:  Iter=  4 NonCon=     1 RMS=4.68D-05 Max=4.80D-04 NDo=     1
 LinEq1:  Iter=  5 NonCon=     1 RMS=6.67D-06 Max=5.98D-05 NDo=     1
 LinEq1:  Iter=  6 NonCon=     1 RMS=1.11D-06 Max=9.13D-06 NDo=     1
 LinEq1:  Iter=  7 NonCon=     1 RMS=2.07D-07 Max=2.26D-06 NDo=     1
 LinEq1:  Iter=  8 NonCon=     1 RMS=2.71D-08 Max=1.93D-07 NDo=     1
 LinEq1:  Iter=  9 NonCon=     1 RMS=2.17D-09 Max=1.78D-08 NDo=     1
 LinEq1:  Iter= 10 NonCon=     1 RMS=1.94D-10 Max=1.83D-09 NDo=     1
 LinEq1:  Iter= 11 NonCon=     0 RMS=1.20D-11 Max=1.29D-10 NDo=     1
 Linear equations converged to 1.000D-10 1.000D-09 after    11 iterations.
 End of Minotr F.D. properties file   721 does not exist.
 End of Minotr F.D. properties file   722 does not exist.
 End of Minotr F.D. properties file   788 does not exist.
 Leave Link 1002 at Wed Jun 26 12:24:31 2019, MaxMem=  2155872256 cpu:        19.0
 (Enter /soft/gaussian/09-e.01/g09/l601.exe)
 Copying SCF densities to generalized density rwf, IOpCl= 0 IROHF=0.

 **********************************************************************

            Population analysis using the SCF density.

 **********************************************************************

 Alpha  occ. eigenvalues --  -19.74588 -10.72072  -1.20785  -0.73683  -0.58182
 Alpha  occ. eigenvalues --   -0.53931  -0.46126  -0.34505
 Alpha virt. eigenvalues --    0.01763   0.08709   0.14672   0.19311   0.34521
 Alpha virt. eigenvalues --    0.34997   0.38044   0.49611   0.50853   0.57146
 Alpha virt. eigenvalues --    0.59919   0.61891   0.73299   0.77922   0.83102
 Alpha virt. eigenvalues --    0.90676   0.95931   1.06177   1.07540   1.09818
 Alpha virt. eigenvalues --    1.18499   1.20718   1.34233   1.50768   1.62470
 Alpha virt. eigenvalues --    1.78675   1.84343   1.98457   2.12355   2.13908
 Alpha virt. eigenvalues --    2.15121   2.30719   2.45833   2.64520   2.67675
 Alpha virt. eigenvalues --    2.74311   2.83715   2.92674   2.98137   3.03164
 Alpha virt. eigenvalues --    3.07939   3.22110   3.24694   3.28514   3.40862
 Alpha virt. eigenvalues --    3.42649   3.45250   3.50076   3.71262   3.82247
 Alpha virt. eigenvalues --    3.93808   3.98886   3.99233   4.06409   4.21494
 Alpha virt. eigenvalues --    4.24365   4.52903   4.53666   4.71548   4.82668
 Alpha virt. eigenvalues --    4.83725   4.85525   5.14566   5.18276   5.34878
 Alpha virt. eigenvalues --    5.40308   5.41262   5.82476   5.85911   6.01561
 Alpha virt. eigenvalues --    6.32754   6.33140   6.54351   6.57844   6.98335
 Alpha virt. eigenvalues --    7.09900   7.20077   7.25379  10.64912  13.07731
          Condensed to atoms (all electrons):
               1          2          3          4
     1  C    4.399927   0.695037   0.363856   0.363856
     2  O    0.695037   7.738650  -0.077563  -0.077563
     3  H    0.363856  -0.077563   0.783114  -0.120027
     4  H    0.363856  -0.077563  -0.120027   0.783114
 Mulliken charges:
               1
     1  C    0.177322
     2  O   -0.278562
     3  H    0.050620
     4  H    0.050620
 Sum of Mulliken charges =  -0.00000
 Mulliken charges with hydrogens summed into heavy atoms:
               1
     1  C    0.278562
     2  O   -0.278562
 Electronic spatial extent (au):  <R**2>=             78.2487
 Charge=              0.0000 electrons
 Dipole moment (field-independent basis, Debye):
    X=              0.0000    Y=              0.0000    Z=             -2.5177  Tot=              2.5177
 Quadrupole moment (field-independent basis, Debye-Ang):
   XX=            -11.5190   YY=            -11.6436   ZZ=            -14.7134
   XY=             -0.0000   XZ=             -0.0000   YZ=             -0.0000
 Traceless Quadrupole moment (field-independent basis, Debye-Ang):
   XX=              1.1063   YY=              0.9817   ZZ=             -2.0881
   XY=             -0.0000   XZ=             -0.0000   YZ=             -0.0000
 Octapole moment (field-independent basis, Debye-Ang**2):
  XXX=              0.0000  YYY=             -0.0003  ZZZ=            -20.6536  XYY=             -0.0000
  XXY=              0.0000  XXZ=             -6.5086  XZZ=             -0.0000  YZZ=             -0.0000
  YYZ=             -5.4765  XYZ=              0.0001
 Hexadecapole moment (field-independent basis, Debye-Ang**3):
 XXXX=            -18.1546 YYYY=            -10.1797 ZZZZ=            -65.5086 XXXY=              0.0002
 XXXZ=             -0.0000 YYYX=              0.0003 YYYZ=              0.0002 ZZZX=              0.0000
 ZZZY=              0.0002 XXYY=             -5.0387 XXZZ=            -13.7179 YYZZ=            -11.6892
 XXYZ=             -0.0000 YYXZ=              0.0000 ZZXY=              0.0001
 N-N= 3.133362379378D+01 E-N=-3.314338758043D+02  KE= 1.138445571184D+02
 No NMR shielding tensors so no spin-rotation constants.
 Leave Link  601 at Wed Jun 26 12:24:31 2019, MaxMem=  2155872256 cpu:         1.0
 (Enter /soft/gaussian/09-e.01/g09/l701.exe)
 Compute integral first derivatives.
 ... and contract with generalized density number  2.
 R6Disp: Adding Grimme-D3(BJ) dispersion energy 1st derivatives to the gradient.
 Leave Link  701 at Wed Jun 26 12:24:31 2019, MaxMem=  2155872256 cpu:         1.0
 (Enter /soft/gaussian/09-e.01/g09/l702.exe)
 L702 exits ... SP integral derivatives will be done elsewhere.
 Leave Link  702 at Wed Jun 26 12:24:31 2019, MaxMem=  2155872256 cpu:         0.1
 (Enter /soft/gaussian/09-e.01/g09/l703.exe)
 Compute integral first derivatives, UseDBF=F ICtDFT=           0.
 Integral derivatives from FoFJK, PRISM(SPDF).
 Calling FoFJK, ICntrl=  10002127 FMM=F ISym2X=0 I1Cent= 0 IOpClX= 0 NMat=1 NMatS=1 NMatT=0.
 FoFJK:  IHMeth= 1 ICntrl=10002127 DoSepK=F KAlg= 0 I1Cent=   0 FoldK=F
 IRaf=         0 NMat=   1 IRICut=       1 DoRegI=T DoRafI=F ISym2E= 0.
 FoFCou: FMM=F IPFlag=           0 FMFlag=      100000 FMFlg1=         800
         NFxFlg=           0 DoJE=F BraDBF=F KetDBF=F FulRan=T
         wScrn=  0.000000 ICntrl=10002127 IOpCl=  0 I1Cent=           0 NGrid=           0
         NMat0=    1 NMatS0=      1 NMatT0=    0 NMatD0=    1 NMtDS0=    0 NMtDT0=    0
 Symmetry not used in FoFCou.
 Leave Link  703 at Wed Jun 26 12:24:33 2019, MaxMem=  2155872256 cpu:         6.2
 (Enter /soft/gaussian/09-e.01/g09/l716.exe)
 Dipole        = 1.05949338D-09 1.72201002D-05-9.00936108D-01
 -------------------------------------------------------------------
 Center     Atomic                   Forces (Hartrees/Bohr)
 Number     Number              X              Y              Z
 -------------------------------------------------------------------
      1        6           0.000000001    0.000012754   -0.000274844
      2        8          -0.000000000   -0.000004171    0.000172562
      3        1           0.000031531   -0.000004293    0.000051141
      4        1          -0.000031532   -0.000004290    0.000051141
 -------------------------------------------------------------------
 Cartesian Forces:  Max     0.000274844 RMS     0.000096933
 -----------------------------------------------------------------------------------------------
                       Internal Coordinate Forces (Hartree/Bohr or radian)
  Cent   Atom   N1       Length/X         N2         Alpha/Y        N3         Beta/Z          J
 -----------------------------------------------------------------------------------------------
      1  C 
      2  O        1   0.000173(     1)
      3  H        1  -0.000000(     2)      2  -0.000125(     4)
      4  H        1  -0.000000(     3)      2  -0.000125(     5)      3  -0.000008(     6)     0
 -----------------------------------------------------------------------------------------------
 Internal  Forces:  Max     0.000172562 RMS     0.000100994
 Force constants in Cartesian coordinates: 
                1             2             3             4             5 
      1  0.633274D+00
      2 -0.333035D-04  0.880882D-01
      3  0.000000D+00 -0.200846D-04  0.137608D+01
      4 -0.976681D-01  0.427554D-05  0.000000D+00  0.618363D-01
      5  0.427554D-05 -0.276765D-01 -0.445009D-05 -0.324617D-05  0.869573D-02
      6  0.000000D+00  0.000000D+00 -0.102937D+01  0.000000D+00  0.000000D+00
      7 -0.267803D+00  0.227718D-05  0.100352D+00  0.179159D-01  0.000000D+00
      8 -0.184517D-05 -0.302058D-01  0.613715D-05  0.000000D+00  0.949041D-02
      9  0.104897D+00  0.363451D-05 -0.173357D+00  0.285947D-01  0.000000D+00
     10 -0.267803D+00  0.267508D-04 -0.100352D+00  0.179159D-01 -0.132904D-05
     11  0.308731D-04 -0.302058D-01  0.183975D-04 -0.160910D-05  0.949041D-02
     12 -0.104897D+00  0.164501D-04 -0.173357D+00 -0.285947D-01  0.397180D-05
                6             7             8             9            10 
      6  0.102937D+01
      7  0.000000D+00  0.260268D+00
      8  0.000000D+00 -0.192260D-05  0.103577D-01
      9  0.000000D+00 -0.116922D+00 -0.306857D-05  0.146912D+00
     10  0.000000D+00 -0.103816D-01  0.318803D-05 -0.165695D-01  0.260268D+00
     11  0.000000D+00  0.000000D+00  0.103577D-01 -0.104423D-05 -0.286098D-04
     12  0.000000D+00  0.165695D-01 -0.306857D-05  0.264459D-01  0.116922D+00
               11            12 
     11  0.103577D-01
     12 -0.173533D-04  0.146912D+00
 Force constants in internal coordinates: 
                1             2             3             4             5 
      1  0.102937D+01
      2  0.000000D+00  0.333525D+00
      3  0.000000D+00  0.000000D+00  0.333525D+00
      4  0.000000D+00  0.000000D+00  0.000000D+00  0.320000D+00
      5  0.000000D+00  0.000000D+00  0.000000D+00  0.160000D+00  0.320000D+00
      6  0.000000D+00  0.000000D+00  0.000000D+00  0.133317D-04  0.133317D-04
                6 
      6  0.323146D-01
 Leave Link  716 at Wed Jun 26 12:24:33 2019, MaxMem=  2155872256 cpu:         0.1
 (Enter /soft/gaussian/09-e.01/g09/l103.exe)

 GradGradGradGradGradGradGradGradGradGradGradGradGradGradGradGradGradGrad
 Berny optimization.
 Search for a local minimum.
 Step number   1 out of a maximum of   50
 All quantities printed in internal units (Hartrees-Bohrs-Radians)
 Second derivative matrix not updated -- first step.
 The second derivative matrix:
                          r1        r2        a2        r3        a3
           r1           1.02937
           r2           0.00000   0.33353
           a2           0.00000   0.00000   0.32000
           r3           0.00000  -0.00000  -0.00000   0.33353
           a3           0.00000  -0.00000   0.16000   0.00000   0.32000
           d3           0.00000  -0.00000   0.00001  -0.00000   0.00001
                          d3
           d3           0.03231
 ITU=  0
     Eigenvalues ---    0.03231   0.16000   0.33353   0.33353   0.48000
     Eigenvalues ---    1.02937
 RFO step:  Lambda=-9.60457468D-08 EMin= 3.23146140D-02
 Linear search not attempted -- first point.
 Variable       Old X    -DE/DX   Delta X   Delta X   Delta X     New X
                                 (Linear)    (Quad)   (Total)
    r1        2.27485   0.00017   0.00000   0.00017   0.00017   2.27502
    r2        2.08437  -0.00000   0.00000  -0.00000  -0.00000   2.08437
    a2        2.13051  -0.00013   0.00000  -0.00026  -0.00026   2.13025
    r3        2.08437  -0.00000   0.00000  -0.00000  -0.00000   2.08437
    a3        2.13051  -0.00013   0.00000  -0.00026  -0.00026   2.13025
    d3        3.14171  -0.00001   0.00000  -0.00023  -0.00023   3.14148
         Item               Value     Threshold  Converged?
 Maximum Force            0.000173     0.000450     YES
 RMS     Force            0.000101     0.000300     YES
 Maximum Displacement     0.000261     0.001800     YES
 RMS     Displacement     0.000191     0.001200     YES
 Predicted change in Energy=-4.802287D-08
 Optimization completed.
    -- Stationary point found.
                       ----------------------------
                       !   Optimized Parameters   !
                       ! (Angstroms and Degrees)  !
 ----------------------                            ----------------------
 !      Name          Value   Derivative information (Atomic Units)     !
 ------------------------------------------------------------------------
 !       r1          1.2038   -DE/DX =    0.0002                        !
 !       r2          1.103    -DE/DX =    0.0                           !
 !       a2        122.069    -DE/DX =   -0.0001                        !
 !       r3          1.103    -DE/DX =    0.0                           !
 !       a3        122.069    -DE/DX =   -0.0001                        !
 !       d3        180.007    -DE/DX =    0.0                           !
 ------------------------------------------------------------------------
 Lowest energy point so far.  Saving SCF results.
 GradGradGradGradGradGradGradGradGradGradGradGradGradGradGradGradGradGrad

 Largest change from initial coordinates is atom    0       0.000 Angstoms.
 Leave Link  103 at Wed Jun 26 12:24:33 2019, MaxMem=  2155872256 cpu:         0.1
 (Enter /soft/gaussian/09-e.01/g09/l202.exe)
 ---------------------------------------------------------------------------------------------------
                            Z-MATRIX (ANGSTROMS AND DEGREES)
   CD    Cent   Atom    N1       Length/X        N2       Alpha/Y        N3        Beta/Z          J
 ---------------------------------------------------------------------------------------------------
      1      1  C 
      2      2  O        1   1.203800(     1)
      3      3  H        1   1.103000(     2)      2  122.069(     4)
      4      4  H        1   1.103000(     3)      2  122.069(     5)      3  180.007(     6)      0
 ---------------------------------------------------------------------------------------------------
                         Z-Matrix orientation:                         
 ---------------------------------------------------------------------
 Center     Atomic      Atomic             Coordinates (Angstroms)
 Number     Number       Type             X           Y           Z
 ---------------------------------------------------------------------
      1          6           0        0.000000    0.000000    0.000000
      2          8           0        0.000000    0.000000    1.203800
      3          1           0        0.934692    0.000000   -0.585627
      4          1           0       -0.934692    0.000114   -0.585627
 ---------------------------------------------------------------------
                    Distance matrix (angstroms):
                    1          2          3          4
     1  C    0.000000
     2  O    1.203800   0.000000
     3  H    1.103000   2.018836   0.000000
     4  H    1.103000   2.018836   1.869385   0.000000
 Symmetry turned off by external request.
 Stoichiometry    CH2O
 Framework group  CS[SG(CO),X(H2)]
 Deg. of freedom     4
 Full point group                 CS      NOp   2
 Rotational constants (GHZ):    286.9885493     38.9213982     34.2732577
 Leave Link  202 at Wed Jun 26 12:24:33 2019, MaxMem=  2155872256 cpu:         0.1
 (Enter /soft/gaussian/09-e.01/g09/l9999.exe)
 1\1\GINC-B435\POpt\RB2PLYPD3-FC\CC-pVTZ\C1H2O1\KMOORE\26-Jun-2019\1\\#
 P b2plypd3/cc-pvtz opt=(maxcyc=50,internal) freq=(anharm,vibrot) int=u
 ltrafine nosym\\C=O\\0,1\C\O,1,r1\H,1,r2,2,a2\H,1,r3,2,a3,3,d3,0\\r1=1
 .2038\r2=1.103\a2=122.069\r3=1.103\a3=122.069\d3=180.007\\Version=ES64
 L-G09RevE.01\HF=-114.3341403\MP2=-114.4640924\RMSD=8.683e-09\RMSF=9.69
 3e-05\Dipole=0.,0.0000172,-0.9009361\PG=CS [SG(C1O1),X(H2)]\\@


 ALL THINGS ARE POSSIBLE EXCEPT SKIING THROUGH A REVOLVING DOOR.
 Leave Link 9999 at Wed Jun 26 12:24:33 2019, MaxMem=  2155872256 cpu:         0.2
 Job cpu time:       0 days  0 hours  0 minutes 46.6 seconds.
 File lengths (MBytes):  RWF=    127 Int=      0 D2E=      0 Chk=      2 Scr=      2
 Normal termination of Gaussian 09 at Wed Jun 26 12:24:33 2019.
 (Enter /soft/gaussian/09-e.01/g09/l1.exe)
 Link1:  Proceeding to internal job step number  2.
 ----------------------------------------------------------------------
 #P Geom=AllCheck Guess=TCheck SCRF=Check GenChk RB2PLYPD3(FC)/CC-pVTZ 
 Freq
 ----------------------------------------------------------------------
 1/6=50,10=4,29=7,30=1,38=21,40=1,80=1/1,6,3;
 2/12=2,15=1,40=1/2;
 3/5=16,6=1,11=1,14=-4,16=1,25=1,30=1,70=2,71=2,74=-60,75=-5,116=1,140=1/1,2,3;
 4/5=101,69=2/1;
 5/5=2,38=6,96=-2,98=1/2;
 8/6=3,8=1,10=1,19=11,30=-1/1;
 9/15=3,16=-3/6;
 11/6=1,8=1,15=11,17=12,24=-1,27=1,28=-2,29=300,31=1,32=6,42=3/1,2,10;
 10/6=2,21=1,31=1,60=-2/2;
 8/6=4,8=1,10=1,19=11,30=-1/11,4;
 10/5=1,20=4,31=1,60=-2/2;
 11/12=2,14=11,16=1,17=2,28=-2,31=1,42=3/2,10,12;
 6/7=2,8=2,9=2,10=2,22=-1/1;
 7/10=1,12=2,25=1,30=1,44=2,70=1,71=2/1,2,3,16;
 1/6=50,38=20,80=1/6(3);
 7/8=1,25=2,30=1,44=-1,70=1,71=2/16,17;
 1/6=50,10=4,30=1,38=20,80=1/3;
 99/8=1100/99;
 3/5=16,6=1,11=1,14=-2,16=1,25=1,30=1,70=5,71=2,74=-60,75=-5,116=1,140=1/1,2,3;
 4/5=5,16=3,69=2/1;
 5/5=2,38=5,96=-2,98=1/2;
 8/6=3,8=1,10=1,19=11,30=-1/1;
 9/15=3,16=-3/6;
 11/6=1,8=1,15=11,17=12,24=-1,27=1,28=-2,29=300,31=1,32=6,42=3/1,2,10;
 10/6=2,21=1,31=1,60=-2/2;
 8/6=4,8=1,10=1,19=11,30=-1/11,4;
 10/5=1,20=4,31=1,60=-2/2;
 11/12=2,14=11,16=1,17=2,28=-2,31=1,42=3/2,10,12;
 6/7=2,8=2,9=2,10=2,22=-1/1;
 7/7=1,10=1,12=2,25=1,30=1,44=2,70=1,71=1/1,2,3,16;
 1/6=50,38=20,80=1/6(-12);
 7/8=1,25=2,30=1,44=-1,70=1,71=1/16,17;
 1/6=50,10=4,30=1,38=20,80=1/3;
 99/8=1100/99;
 Leave Link    1 at Wed Jun 26 12:24:33 2019, MaxMem=  2155872256 cpu:         0.2
 (Enter /soft/gaussian/09-e.01/g09/l101.exe)
 Structure from the checkpoint file:  "/lcrc/project/CMRP/mechanisms/2_Species/new/b2/CH2O/C=O_m1/opt/b2plypd3/cc-pvtz/gaussian/anharm/b2plypd3/cc-pvtz/gaussian/Gau-75440.chk"
 ---
 C=O
 ---
 Charge =  0 Multiplicity = 1
 Z-Matrix found in file.
 C
 O,1,r1
 H,1,r2,2,a2
 H,1,r3,2,a3,3,d3,0
      Variables:
 r1=1.2038
 r2=1.103
 a2=122.069
 r3=1.103
 a3=122.069
 d3=180.007
 Recover connectivity data from disk.
 NAtoms=      4 NQM=        4 NQMF=       0 NMMI=      0 NMMIF=      0
                NMic=       0 NMicF=      0.
                    Isotopes and Nuclear Properties:
 (Nuclear quadrupole moments (NQMom) in fm**2, nuclear magnetic moments (NMagM)
  in nuclear magnetons)

  Atom         1           2           3           4
 IAtWgt=          12          16           1           1
 AtmWgt=  12.0000000  15.9949146   1.0078250   1.0078250
 NucSpn=           0           0           1           1
 AtZEff=  -3.6000000  -5.6000000  -1.0000000  -1.0000000
 NQMom=    0.0000000   0.0000000   0.0000000   0.0000000
 NMagM=    0.0000000   0.0000000   2.7928460   2.7928460
 AtZNuc=   6.0000000   8.0000000   1.0000000   1.0000000
 Leave Link  101 at Wed Jun 26 12:24:33 2019, MaxMem=  2155872256 cpu:         0.4
 (Enter /soft/gaussian/09-e.01/g09/l106.exe)
 Numerical evaluation of third derivatives.
 Nuclear step= 0.010000 Angstroms, electric field step= 0.000333 atomic units, NStep=1.
 Leave Link  106 at Wed Jun 26 12:24:33 2019, MaxMem=  2155872256 cpu:         0.0
 (Enter /soft/gaussian/09-e.01/g09/l103.exe)

 GradGradGradGradGradGradGradGradGradGradGradGradGradGradGradGradGradGrad
 Berny optimization.
 Initialization pass.
                       ----------------------------
                       !    Initial Parameters    !
                       ! (Angstroms and Degrees)  !
 ----------------------                            ----------------------
 !      Name          Value   Derivative information (Atomic Units)     !
 ------------------------------------------------------------------------
 !       r1          1.2038   calculate D2E/DX2 analytically            !
 !       r2          1.103    calculate D2E/DX2 analytically            !
 !       a2        122.069    calculate D2E/DX2 analytically            !
 !       r3          1.103    calculate D2E/DX2 analytically            !
 !       a3        122.069    calculate D2E/DX2 analytically            !
 !       d3        180.007    calculate D2E/DX2 analytically            !
 ------------------------------------------------------------------------
 Trust Radius=3.00D-01 FncErr=1.00D-07 GrdErr=1.00D-07
 Number of steps in this run=      2 maximum allowed number of steps=      2.
 GradGradGradGradGradGradGradGradGradGradGradGradGradGradGradGradGradGrad

 Leave Link  103 at Wed Jun 26 12:24:33 2019, MaxMem=  2155872256 cpu:         0.1
 (Enter /soft/gaussian/09-e.01/g09/l202.exe)
                          Input orientation:                          
 ---------------------------------------------------------------------
 Center     Atomic      Atomic             Coordinates (Angstroms)
 Number     Number       Type             X           Y           Z
 ---------------------------------------------------------------------
      1          6           0        0.000000    0.000000    0.000000
      2          8           0        0.000000    0.000000    1.203800
      3          1           0        0.934692    0.000000   -0.585627
      4          1           0       -0.934692    0.000114   -0.585627
 ---------------------------------------------------------------------
                    Distance matrix (angstroms):
                    1          2          3          4
     1  C    0.000000
     2  O    1.203800   0.000000
     3  H    1.103000   2.018836   0.000000
     4  H    1.103000   2.018836   1.869385   0.000000
 Symmetry turned off by external request.
 Stoichiometry    CH2O
 Framework group  CS[SG(CO),X(H2)]
 Deg. of freedom     4
 Full point group                 CS      NOp   2
 Rotational constants (GHZ):    286.9885493     38.9213982     34.2732577
 Leave Link  202 at Wed Jun 26 12:24:33 2019, MaxMem=  2155872256 cpu:         0.0
 (Enter /soft/gaussian/09-e.01/g09/l301.exe)
 Standard basis: CC-pVTZ (5D, 7F)
 Ernie: Thresh=  0.10000D-02 Tol=  0.10000D-05 Strict=F.
 Ernie:  6 primitive shells out of 68 were deleted.
    88 basis functions,   138 primitive gaussians,   100 cartesian basis functions
     8 alpha electrons        8 beta electrons
       nuclear repulsion energy        31.3344065983 Hartrees.
 IExCor=  419 DFT=T Ex+Corr=B2PLYPD3 ExCW=0 ScaHFX=  0.530000
 ScaDFX=  0.470000  0.470000  0.730000  0.730000 ScalE2=  0.270000  0.270000
 IRadAn=      5 IRanWt=     -1 IRanGd=            0 ICorTp=0 IEmpDi=141
 NAtoms=    4 NActive=    4 NUniq=    4 SFac= 1.00D+00 NAtFMM=   60 NAOKFM=F Big=F
 Integral buffers will be    131072 words long.
 Raffenetti 1 integral format.
 Two-electron integral symmetry is turned off.
 R6Disp:  Grimme-D3(BJ) Dispersion energy=       -0.0007828046 Hartrees.
 Nuclear repulsion after empirical dispersion term =       31.3336237938 Hartrees.
 Leave Link  301 at Wed Jun 26 12:24:33 2019, MaxMem=  2155872256 cpu:         0.3
 (Enter /soft/gaussian/09-e.01/g09/l302.exe)
 NPDir=0 NMtPBC=     1 NCelOv=     1 NCel=       1 NClECP=     1 NCelD=      1
         NCelK=      1 NCelE2=     1 NClLst=     1 CellRange=     0.0.
 One-electron integrals computed using PRISM.
 NBasis=    88 RedAO= T EigKep=  2.33D-03  NBF=    88
 NBsUse=    88 1.00D-06 EigRej= -1.00D+00 NBFU=    88
 Precomputing XC quadrature grid using
 IXCGrd= 4 IRadAn=           5 IRanWt=          -1 IRanGd=           0 AccXCQ= 0.00D+00.
 Generated NRdTot=       0 NPtTot=           0 NUsed=           0 NTot=          32
 NSgBfM=   100   100   100   100   100 MxSgAt=     4 MxSgA2=     4.
 Leave Link  302 at Wed Jun 26 12:24:33 2019, MaxMem=  2155872256 cpu:         1.0
 (Enter /soft/gaussian/09-e.01/g09/l303.exe)
 DipDrv:  MaxL=1.
 Leave Link  303 at Wed Jun 26 12:24:33 2019, MaxMem=  2155872256 cpu:         0.1
 (Enter /soft/gaussian/09-e.01/g09/l401.exe)
 Initial guess from the checkpoint file:  "/lcrc/project/CMRP/mechanisms/2_Species/new/b2/CH2O/C=O_m1/opt/b2plypd3/cc-pvtz/gaussian/anharm/b2plypd3/cc-pvtz/gaussian/Gau-75440.chk"
 B after Tr=     0.000000    0.000000    0.000000
         Rot=    1.000000    0.000000    0.000000    0.000000 Ang=   0.00 deg.
 Guess basis will be translated and rotated to current coordinates.
 JPrj=2 DoOrth=T DoCkMO=T.
 Leave Link  401 at Wed Jun 26 12:24:33 2019, MaxMem=  2155872256 cpu:         0.4
 (Enter /soft/gaussian/09-e.01/g09/l502.exe)
 Closed shell SCF:
 Using DIIS extrapolation, IDIIS=  1040.
 Two-electron integral symmetry not used.
 Keep R1 ints in memory in canonical form, NReq=9698406.
 IVT=       49758 IEndB=       49758 NGot=  2155872256 MDV=  2148153013
 LenX=  2148153013 LenY=  2148142572
 Requested convergence on RMS density matrix=1.00D-08 within 128 cycles.
 Requested convergence on MAX density matrix=1.00D-06.
 Requested convergence on             energy=1.00D-06.
 No special actions if energy rises.
 FoFCou: FMM=F IPFlag=           0 FMFlag=           0 FMFlg1=           0
         NFxFlg=           0 DoJE=F BraDBF=F KetDBF=F FulRan=T
         wScrn=  0.000000 ICntrl=     600 IOpCl=  0 I1Cent=           0 NGrid=           0
         NMat0=    1 NMatS0=   3916 NMatT0=    0 NMatD0=    1 NMtDS0=    0 NMtDT0=    0
 Symmetry not used in FoFCou.

 Cycle   1  Pass 1  IDiag  1:
 E= -114.334140321692    
 DIIS: error= 3.39D-08 at cycle   1 NSaved=   1.
 NSaved= 1 IEnMin= 1 EnMin= -114.334140321692     IErMin= 1 ErrMin= 3.39D-08
 ErrMax= 3.39D-08  0.00D+00 EMaxC= 1.00D-01 BMatC= 5.07D-14 BMatP= 5.07D-14
 IDIUse=1 WtCom= 1.00D+00 WtEn= 0.00D+00
 Coeff-Com:  0.100D+01
 Coeff:      0.100D+01
 Gap=     0.363 Goal=   None    Shift=    0.000
 RMSDP=4.73D-09 MaxDP=7.34D-08              OVMax= 1.40D-07

 SCF Done:  E(RB2PLYPD3) =  -114.334140322     A.U. after    1 cycles
            NFock=  1  Conv=0.47D-08     -V/T= 2.0043
 KE= 1.138445596623D+02 PE=-3.314338783481D+02 EE= 7.192155457037D+01
 Leave Link  502 at Wed Jun 26 12:24:34 2019, MaxMem=  2155872256 cpu:         2.6
 (Enter /soft/gaussian/09-e.01/g09/l801.exe)
 DoSCS=T DFT=T ScalE2(SS,OS)=  0.270000  0.270000
 ExpMin= 1.03D-01 ExpMax= 1.53D+04 ExpMxC= 5.22D+02 IAcc=3 IRadAn=         5 AccDes= 0.00D+00
 HarFok:  IExCor=  205 AccDes= 0.00D+00 IRadAn=         5 IDoV=-2 UseB2=F ITyADJ=14
 ICtDFT= 12500011 ScaDFX=  1.000000  1.000000  1.000000  1.000000
 Largest valence mixing into a core orbital is  1.14D-04
 Largest core mixing into a valence orbital is  1.44D-05
 Range of M.O.s used for correlation:     3    88
 NBasis=    88 NAE=     8 NBE=     8 NFC=     2 NFV=     0
 NROrb=     86 NOA=     6 NOB=     6 NVA=    80 NVB=    80
 Leave Link  801 at Wed Jun 26 12:24:34 2019, MaxMem=  2155872256 cpu:         0.3
 (Enter /soft/gaussian/09-e.01/g09/l906.exe)
 DoSCS=T DFT=T ScalE2(SS,OS)=  0.270000  0.270000
 Frozen-core derivative calculation, NFC=   2 NFV=   0.
 FulOut=F Deriv=T AODrv=T NAtomX=     4
   MMem=           0  MDisk=           6 MDiskD=           6
  W3Min=       70400 MinDsk=      335850 NBas6D=         100
 NBas2D=        5260    NTT=        5050    LW2=     7400000
    MDV=  2155767208 MDiskM=      107688 NBas2p=        5260
 Disk-based method using ON**2 memory for  6 occupieds at a time.
 Permanent disk used for amplitudes=      498080 words.
 Estimated scratch disk usage=    11092000 words.
 IMap=   1   2   3   4   5   6   7   8
 Actual    scratch disk usage=    11092000 words.
 JobTyp=1 Pass  1:  I=   3 to   8 NPSUse=  6 ParTrn=T ParDer=T DoDerP=T.
 (rs|ai) integrals will be sorted in core.
 Spin components of T(2) and E(2):
     alpha-alpha T2 =       0.2112178501D-01 E2=     -0.1573372909D-01
     alpha-beta  T2 =       0.1326036916D+00 E2=     -0.9848459268D-01
     beta-beta   T2 =       0.2112178501D-01 E2=     -0.1573372909D-01
 The integrals were generated   1 times.
 E2(B2PLYPD3) =    -0.1299520509D+00 E(B2PLYPD3) =    -0.11446409237255D+03
 Leave Link  906 at Wed Jun 26 12:24:40 2019, MaxMem=  2155872256 cpu:        34.9
 (Enter /soft/gaussian/09-e.01/g09/l1101.exe)
 Using compressed Sx but separate Hx and Fx, NAtomX=     4.
 Will process      5 centers per pass.
 R6Disp: Adding Grimme-D3(BJ) dispersion energy 1st derivatives to the gradient.
 Leave Link 1101 at Wed Jun 26 12:24:40 2019, MaxMem=  2155872256 cpu:         1.0
 (Enter /soft/gaussian/09-e.01/g09/l1102.exe)
 Leave Link 1102 at Wed Jun 26 12:24:40 2019, MaxMem=  2155872256 cpu:         0.1
 (Enter /soft/gaussian/09-e.01/g09/l1110.exe)
 Forming Gx(P) for the SCF density, NAtomX=     4.
 Integral derivatives from FoFJK, PRISM(SPDF).
 Do as many integral derivatives as possible in FoFJK.
 G2DrvN: MDV=    2155872120.
 G2DrvN: will do     5 centers at a time, making    1 passes.
 Calling FoFCou, ICntrl=  3107 FMM=F I1Cent=   0 AccDes= 0.00D+00.
 FoFJK:  IHMeth= 1 ICntrl=    3107 DoSepK=F KAlg= 0 I1Cent=   0 FoldK=F
 IRaf=         0 NMat=   1 IRICut=       1 DoRegI=T DoRafI=F ISym2E= 0.
 FoFCou: FMM=F IPFlag=           0 FMFlag=      100000 FMFlg1=           0
         NFxFlg=           0 DoJE=F BraDBF=F KetDBF=F FulRan=T
         wScrn=  0.000000 ICntrl=    3107 IOpCl=  0 I1Cent=           0 NGrid=           0
         NMat0=    1 NMatS0=      1 NMatT0=    0 NMatD0=    1 NMtDS0=    0 NMtDT0=    0
 Symmetry not used in FoFCou.
 End of G2Drv F.D. properties file   721 does not exist.
 End of G2Drv F.D. properties file   722 does not exist.
 End of G2Drv F.D. properties file   788 does not exist.
 Leave Link 1110 at Wed Jun 26 12:24:43 2019, MaxMem=  2155872256 cpu:        17.5
 (Enter /soft/gaussian/09-e.01/g09/l1002.exe)
 Minotr:  Closed shell wavefunction.
          IDoAtm=1111
          Frozen-core window.
          Direct CPHF calculation.
          Differentiating once with respect to electric field.
                with respect to dipole field.
          Differentiating once with respect to nuclear coordinates.
          Requested convergence is 1.0D-08 RMS, and 1.0D-07 maximum.
          Secondary convergence is 1.0D-12 RMS, and 1.0D-12 maximum.
          NewPWx=T KeepS1=T KeepF1=T KeepIn=T MapXYZ=F SortEE=F KeepMc=T.
          MDV=    2155872126 using IRadAn=       4.
 Generate precomputed XC quadrature information.
 Keep R1 ints in memory in canonical form, NReq=9666025.
 FoFCou: FMM=F IPFlag=           0 FMFlag=           0 FMFlg1=           0
         NFxFlg=           0 DoJE=F BraDBF=F KetDBF=F FulRan=T
         wScrn=  0.000000 ICntrl=     600 IOpCl=  0 I1Cent=           0 NGrid=           0
         NMat0=    1 NMatS0=   3916 NMatT0=    0 NMatD0=    1 NMtDS0=    0 NMtDT0=    0
 Symmetry not used in FoFCou.
          Solving linear equations simultaneously, MaxMat=       0.
          There are    15 degrees of freedom in the 1st order CPHF.  IDoFFX=6 NUNeed=    15.
     12 vectors produced by pass  0 Test12= 4.27D-15 6.67D-09 XBig12= 9.98D+00 2.28D+00.
 AX will form    12 AO Fock derivatives at one time.
     12 vectors produced by pass  1 Test12= 4.27D-15 6.67D-09 XBig12= 1.57D+00 4.59D-01.
     12 vectors produced by pass  2 Test12= 4.27D-15 6.67D-09 XBig12= 5.09D-02 8.73D-02.
     12 vectors produced by pass  3 Test12= 4.27D-15 6.67D-09 XBig12= 1.45D-03 1.38D-02.
     12 vectors produced by pass  4 Test12= 4.27D-15 6.67D-09 XBig12= 8.07D-06 6.66D-04.
     12 vectors produced by pass  5 Test12= 4.27D-15 6.67D-09 XBig12= 2.92D-08 4.62D-05.
      6 vectors produced by pass  6 Test12= 4.27D-15 6.67D-09 XBig12= 7.86D-11 2.63D-06.
      3 vectors produced by pass  7 Test12= 4.27D-15 6.67D-09 XBig12= 2.55D-13 1.67D-07.
      1 vectors produced by pass  8 Test12= 4.27D-15 6.67D-09 XBig12= 7.48D-16 7.98D-09.
 InvSVY:  IOpt=1 It=  1 EMax= 8.88D-16
 Solved reduced A of dimension    82 with    12 vectors.
 FullF1:  Do perturbations    1 to    15.
 Saving first derivative matrices.
 End of Minotr F.D. properties file   721 does not exist.
 End of Minotr F.D. properties file   722 does not exist.
 End of Minotr F.D. properties file   788 does not exist.
 Leave Link 1002 at Wed Jun 26 12:24:50 2019, MaxMem=  2155872256 cpu:        40.4
 (Enter /soft/gaussian/09-e.01/g09/l811.exe)
 MDV=  2155872256.
 DoSCS=T DFT=T ScalE2(SS,OS)=  0.270000  0.270000
 Form MO integral derivatives with frozen-active canonical formalism.
 MOERI=1 MOERIx=1 NAtoms=     4 NAtomX=     4.
 Discarding MO integrals.
 MO basis two electron integral derivatives will not be stored on disk.
 IAlg= 3 DoFC=T DoPWx=T Debug=F.
 Frozen-core window:  NFC=   2 NFV=   0.
 Reordered first order wavefunction length =       819200
 In DefCFB: NBatch=  1 ICI=  8 ICA= 80 LFMax= 40
            Large arrays: LIAPS=    22528000 LIARS=    15680000 words.
 In StABat: MaxSiz= 35 MinSiz= 30 NAtomB=  3
 DoIAMN: NPSUse=  6.
 Leave Link  811 at Wed Jun 26 12:24:55 2019, MaxMem=  2155872256 cpu:        33.2
 (Enter /soft/gaussian/09-e.01/g09/l804.exe)
 Frozen-core window:  NFC=   2 NFV=   0.
 Closed-shell transformation, MDV=  2155872256 ITran=4 ISComp=1.
 Semi-Direct transformation.
 ModeAB=           2 MOrb=             8 LenV=    2155505119
 LASXX=      2538806 LTotXX=     2538806 LenRXX=     2538806
 LTotAB=     2624176 MaxLAS=     3555200 LenRXY=     3555200
 NonZer=     5077612 LenScr=     7864320 LnRSAI=           0
 LnScr1=           0 LExtra=           0 Total=     13958326
 MaxDsk=          -1 SrtSym=           F ITran=            4
 DoSDTr:  NPSUse=  6
 JobTyp=0 Pass  1:  I=   1 to   8.
 (rs|ai) integrals will be sorted in core.
 Complete sort for first half transformation.
 First half transformation complete.
 Complete sort for second half transformation.
 Second half transformation complete.
 DoSCS=T DFT=T ScalE2(SS,OS)=  0.270000  0.270000
 Spin components of T(2) and E(2):
     alpha-alpha T2 =       0.2112178501D-01 E2=     -0.1573372909D-01
     alpha-beta  T2 =       0.1326036916D+00 E2=     -0.9848459268D-01
     beta-beta   T2 =       0.2112178501D-01 E2=     -0.1573372909D-01
 E2(B2PLYPD3) =    -0.1299520509D+00 E(B2PLYPD3) =    -0.11446409237255D+03
 Leave Link  804 at Wed Jun 26 12:24:56 2019, MaxMem=  2155872256 cpu:         5.6
 (Enter /soft/gaussian/09-e.01/g09/l1002.exe)
 Minotr:  Closed shell wavefunction.
          Computing MP2/KS-MP2 derivatives.
          Using Z-Vector for PSCF gradient.
          Skipping F1 and S1 gradient terms here.
          IDoAtm=1111
          Frozen-core window.
          Direct CPHF calculation.
          Differentiating once with respect to electric field.
                with respect to dipole field.
          Differentiating once with respect to nuclear coordinates.
          Requested convergence is 1.0D-10 RMS, and 1.0D-09 maximum.
          NewPWx=T KeepS1=F KeepF1=F KeepIn=T MapXYZ=F SortEE=F KeepMc=T.
          MDV=    2155872126 using IRadAn=       4.
 Generate precomputed XC quadrature information.
 Keep R1 ints in memory in canonical form, NReq=9666196.
 FoFCou: FMM=F IPFlag=           0 FMFlag=           0 FMFlg1=           0
         NFxFlg=           0 DoJE=F BraDBF=F KetDBF=F FulRan=T
         wScrn=  0.000000 ICntrl=     600 IOpCl=  0 I1Cent=           0 NGrid=           0
         NMat0=    1 NMatS0=   3916 NMatT0=    0 NMatD0=    1 NMtDS0=    0 NMtDT0=    0
 Symmetry not used in FoFCou.
          Solving linear equations separately, MaxMat=       0.
          There are     1 degrees of freedom in the 1st order CPHF.  IDoFFX=0 NUNeed=     1.
 LinEq1:  Iter=  0 NonCon=     1 RMS=2.95D-03 Max=3.76D-02 NDo=     1
 AX will form     1 AO Fock derivatives at one time.
 LinEq1:  Iter=  1 NonCon=     1 RMS=1.27D-03 Max=1.81D-02 NDo=     1
 LinEq1:  Iter=  2 NonCon=     1 RMS=5.09D-04 Max=5.24D-03 NDo=     1
 LinEq1:  Iter=  3 NonCon=     1 RMS=2.36D-04 Max=2.82D-03 NDo=     1
 LinEq1:  Iter=  4 NonCon=     1 RMS=4.68D-05 Max=4.80D-04 NDo=     1
 LinEq1:  Iter=  5 NonCon=     1 RMS=6.67D-06 Max=5.98D-05 NDo=     1
 LinEq1:  Iter=  6 NonCon=     1 RMS=1.11D-06 Max=9.13D-06 NDo=     1
 LinEq1:  Iter=  7 NonCon=     1 RMS=2.07D-07 Max=2.26D-06 NDo=     1
 LinEq1:  Iter=  8 NonCon=     1 RMS=2.71D-08 Max=1.93D-07 NDo=     1
 LinEq1:  Iter=  9 NonCon=     1 RMS=2.17D-09 Max=1.78D-08 NDo=     1
 LinEq1:  Iter= 10 NonCon=     1 RMS=1.94D-10 Max=1.83D-09 NDo=     1
 LinEq1:  Iter= 11 NonCon=     0 RMS=1.20D-11 Max=1.29D-10 NDo=     1
 Linear equations converged to 1.000D-10 1.000D-09 after    11 iterations.
 End of Minotr F.D. properties file   721 does not exist.
 End of Minotr F.D. properties file   722 does not exist.
 End of Minotr F.D. properties file   788 does not exist.
 Leave Link 1002 at Wed Jun 26 12:24:58 2019, MaxMem=  2155872256 cpu:         8.5
 (Enter /soft/gaussian/09-e.01/g09/l1102.exe)
 Use density number 2.
 Symmetrizing basis deriv contribution to polar:
 IMax=3 JMax=2 DiffMx= 0.00D+00
 Leave Link 1102 at Wed Jun 26 12:24:58 2019, MaxMem=  2155872256 cpu:         0.1
 (Enter /soft/gaussian/09-e.01/g09/l1110.exe)
 Forming Gx(P) for generalized density number  2 NAtomX=     4.
 Integral derivatives from FoFJK, PRISM(SPDF).
 Do as many integral derivatives as possible in FoFJK.
 G2DrvN: MDV=    2155872120.
 G2DrvN: will do     5 centers at a time, making    1 passes.
 Calling FoFCou, ICntrl=  3107 FMM=F I1Cent=   0 AccDes= 0.00D+00.
 FoFJK:  IHMeth= 1 ICntrl=    3107 DoSepK=F KAlg= 0 I1Cent=   0 FoldK=F
 IRaf=         0 NMat=   1 IRICut=       1 DoRegI=T DoRafI=F ISym2E= 0.
 FoFCou: FMM=F IPFlag=           0 FMFlag=      100000 FMFlg1=           0
         NFxFlg=           0 DoJE=F BraDBF=F KetDBF=F FulRan=T
         wScrn=  0.000000 ICntrl=    3107 IOpCl=  0 I1Cent=           0 NGrid=           0
         NMat0=    1 NMatS0=      1 NMatT0=    0 NMatD0=    1 NMtDS0=    0 NMtDT0=    0
 Symmetry not used in FoFCou.
 End of G2Drv F.D. properties file   721 does not exist.
 End of G2Drv F.D. properties file   722 does not exist.
 End of G2Drv F.D. properties file   788 does not exist.
 Leave Link 1110 at Wed Jun 26 12:25:01 2019, MaxMem=  2155872256 cpu:        19.1
 (Enter /soft/gaussian/09-e.01/g09/l1112.exe)
 MP22nd: MDV=    2155872256
 DoSCS=T DFT=T ScalE2(SS,OS)=  0.270000  0.270000
 Using stored XC quadrature information.
 This link is doing NAtomX=     4 total of    15 degrees of freedom.
 Using ON3 I/O method in MakUI.
 Frozen-core window:  NFC=   2 NFV=   0.
 Using Ix for Sx.
 Use MO integrals over full window.
 Using OV2 memory method for fx*t*t/D, MaxI=     8 DoOO2=F NP=   6.
 R2 and R3 integrals will be kept in memory, NReq=    27447550.
 FoFCou: FMM=F IPFlag=           0 FMFlag=           0 FMFlg1=           0
         NFxFlg=           0 DoJE=F BraDBF=F KetDBF=F FulRan=T
         wScrn=  0.000000 ICntrl=     600 IOpCl=  0 I1Cent=           0 NGrid=           0
         NMat0=    1 NMatS0=      1 NMatT0=    0 NMatD0=    1 NMtDS0=    0 NMtDT0=    0
 Symmetry not used in FoFCou.
 DD1Dir will call FoFMem   1 times, MxPair=       100
 NAB=    36 NAA=    28 NBB=     0.
 FoFJK:  IHMeth= 1 ICntrl=       0 DoSepK=F KAlg= 0 I1Cent=   0 FoldK=F
 IRaf=         0 NMat=  15 IRICut=      37 DoRegI=T DoRafI=T ISym2E= 0.
 R6Disp: Adding Grimme-D3(BJ) dispersion energy 1st derivatives to the gradient.
 Discarding MO integrals.
 Leave Link 1112 at Wed Jun 26 12:25:14 2019, MaxMem=  2155872256 cpu:        73.6
 (Enter /soft/gaussian/09-e.01/g09/l601.exe)
 Copying SCF densities to generalized density rwf, IOpCl= 0 IROHF=0.

 **********************************************************************

            Population analysis using the MP2 density.

 **********************************************************************

 Alpha  occ. eigenvalues --  -19.74588 -10.72072  -1.20785  -0.73683  -0.58182
 Alpha  occ. eigenvalues --   -0.53931  -0.46126  -0.34505
 Alpha virt. eigenvalues --    0.01763   0.08709   0.14672   0.19311   0.34521
 Alpha virt. eigenvalues --    0.34997   0.38044   0.49611   0.50853   0.57146
 Alpha virt. eigenvalues --    0.59919   0.61891   0.73299   0.77922   0.83102
 Alpha virt. eigenvalues --    0.90676   0.95931   1.06177   1.07540   1.09818
 Alpha virt. eigenvalues --    1.18499   1.20718   1.34233   1.50768   1.62470
 Alpha virt. eigenvalues --    1.78675   1.84343   1.98456   2.12355   2.13908
 Alpha virt. eigenvalues --    2.15121   2.30719   2.45833   2.64520   2.67675
 Alpha virt. eigenvalues --    2.74311   2.83715   2.92674   2.98137   3.03164
 Alpha virt. eigenvalues --    3.07939   3.22110   3.24694   3.28514   3.40862
 Alpha virt. eigenvalues --    3.42649   3.45250   3.50076   3.71262   3.82247
 Alpha virt. eigenvalues --    3.93808   3.98886   3.99233   4.06409   4.21494
 Alpha virt. eigenvalues --    4.24365   4.52903   4.53666   4.71548   4.82668
 Alpha virt. eigenvalues --    4.83725   4.85525   5.14566   5.18276   5.34878
 Alpha virt. eigenvalues --    5.40308   5.41262   5.82476   5.85911   6.01561
 Alpha virt. eigenvalues --    6.32754   6.33140   6.54351   6.57844   6.98335
 Alpha virt. eigenvalues --    7.09900   7.20077   7.25379  10.64912  13.07731
          Condensed to atoms (all electrons):
               1          2          3          4
     1  C    4.486440   0.696032   0.339512   0.339512
     2  O    0.696032   7.706358  -0.082666  -0.082666
     3  H    0.339512  -0.082666   0.829311  -0.135436
     4  H    0.339512  -0.082666  -0.135436   0.829311
 Mulliken charges:
               1
     1  C    0.138503
     2  O   -0.237059
     3  H    0.049278
     4  H    0.049278
 Sum of Mulliken charges =  -0.00000
 Mulliken charges with hydrogens summed into heavy atoms:
               1
     1  C    0.237059
     2  O   -0.237059
 APT charges:
               1
     1  C    0.653364
     2  O   -0.532436
     3  H   -0.060464
     4  H   -0.060464
 Sum of APT charges =  -0.00000
 APT charges with hydrogens summed into heavy atoms:
               1
     1  C    0.532436
     2  O   -0.532436
 Electronic spatial extent (au):  <R**2>=             78.2430
 Charge=             -0.0000 electrons
 Dipole moment (field-independent basis, Debye):
    X=              0.0000    Y=              0.0000    Z=             -2.2900  Tot=              2.2900
 Quadrupole moment (field-independent basis, Debye-Ang):
   XX=            -11.6552   YY=            -11.6422   ZZ=            -14.5710
   XY=              0.0000   XZ=             -0.0000   YZ=             -0.0000
 Traceless Quadrupole moment (field-independent basis, Debye-Ang):
   XX=              0.9676   YY=              0.9806   ZZ=             -1.9482
   XY=              0.0000   XZ=             -0.0000   YZ=             -0.0000
 Octapole moment (field-independent basis, Debye-Ang**2):
  XXX=             -0.0000  YYY=             -0.0003  ZZZ=            -20.2374  XYY=             -0.0000
  XXY=             -0.0000  XXZ=             -6.3785  XZZ=             -0.0000  YZZ=             -0.0000
  YYZ=             -5.3470  XYZ=              0.0001
 Hexadecapole moment (field-independent basis, Debye-Ang**3):
 XXXX=            -18.7559 YYYY=            -10.1980 ZZZZ=            -65.3574 XXXY=              0.0002
 XXXZ=              0.0000 YYYX=              0.0003 YYYZ=              0.0002 ZZZX=              0.0000
 ZZZY=              0.0002 XXYY=             -5.1183 XXZZ=            -13.8696 YYZZ=            -11.6342
 XXYZ=              0.0000 YYXZ=              0.0000 ZZXY=              0.0001
 N-N= 3.133362379378D+01 E-N=-3.315437495509D+02  KE= 1.140531434329D+02
  Exact polarizability:  15.721  -0.000   9.883  -0.000  -0.000  20.297
 Approx polarizability:  15.177  -0.000  11.487  -0.000  -0.000  24.329
 No NMR shielding tensors so no spin-rotation constants.
 Leave Link  601 at Wed Jun 26 12:25:14 2019, MaxMem=  2155872256 cpu:         1.0
 (Enter /soft/gaussian/09-e.01/g09/l701.exe)
 Compute integral second derivatives.
 ... and contract with generalized density number  2.
 R6Disp: Adding Grimme-D3(BJ) dispersion energy 2nd derivatives to the Hessian.
 Leave Link  701 at Wed Jun 26 12:25:15 2019, MaxMem=  2155872256 cpu:         1.3
 (Enter /soft/gaussian/09-e.01/g09/l702.exe)
 L702 exits ... SP integral derivatives will be done elsewhere.
 Leave Link  702 at Wed Jun 26 12:25:15 2019, MaxMem=  2155872256 cpu:         0.1
 (Enter /soft/gaussian/09-e.01/g09/l703.exe)
 Compute integral second derivatives, UseDBF=F ICtDFT=           0.
 Integral derivatives from FoFJK, PRISM(SPDF).
 Calling FoFJK, ICntrl=  10100127 FMM=F ISym2X=0 I1Cent= 0 IOpClX= 0 NMat=1 NMatS=1 NMatT=0.
 FoFJK:  IHMeth= 1 ICntrl=10100127 DoSepK=F KAlg= 0 I1Cent=   0 FoldK=F
 IRaf=         0 NMat=   1 IRICut=       1 DoRegI=T DoRafI=F ISym2E= 0.
 FoFCou: FMM=F IPFlag=           0 FMFlag=      100000 FMFlg1=         800
         NFxFlg=           0 DoJE=F BraDBF=F KetDBF=F FulRan=T
         wScrn=  0.000000 ICntrl=10100127 IOpCl=  0 I1Cent=           0 NGrid=           0
         NMat0=    1 NMatS0=      1 NMatT0=    0 NMatD0=    1 NMtDS0=    0 NMtDT0=    0
 Symmetry not used in FoFCou.
 Leave Link  703 at Wed Jun 26 12:25:21 2019, MaxMem=  2155872256 cpu:        41.3
 (Enter /soft/gaussian/09-e.01/g09/l716.exe)
 Dipole        = 1.05931799D-09 1.72203895D-05-9.00936506D-01
 Polarizability= 1.57209119D+01-3.56632815D-04 9.88280573D+00
                -1.27241176D-08-2.07720591D-04 2.02965038D+01
 Full mass-weighted force constant matrix:
 Low frequencies ---  -20.1990  -14.0799  -12.6357   -0.0014    0.0003    0.0005
 Low frequencies --- 1208.5825 1275.5983 1546.8495
 Diagonal vibrational polarizability:
        0.6000820       0.0641505       1.0586488
 Harmonic frequencies (cm**-1), IR intensities (KM/Mole), Raman scattering
 activities (A**4/AMU), depolarization ratios for plane and unpolarized
 incident light, reduced masses (AMU), force constants (mDyne/A),
 and normal coordinates:
                      1                      2                      3
                      A                      A                      A
 Frequencies --   1208.5824              1275.5983              1546.8495
 Red. masses --      1.3668                 1.3399                 1.1356
 Frc consts  --      1.1762                 1.2845                 1.6009
 IR Inten    --      3.4819                11.8418                10.4409
  Atom  AN      X      Y      Z        X      Y      Z        X      Y      Z
     1   6    -0.00  -0.17  -0.00    -0.15   0.00   0.00     0.00   0.00   0.02
     2   8     0.00   0.04  -0.00     0.08  -0.00   0.00     0.00   0.00  -0.09
     3   1     0.00   0.70   0.00     0.25  -0.00   0.65     0.34  -0.00   0.62
     4   1     0.00   0.70   0.00     0.25  -0.00  -0.65    -0.34  -0.00   0.62
                      4                      5                      6
                      A                      A                      A
 Frequencies --   1797.0217              2922.7978              2983.2570
 Red. masses --      6.3238                 1.0435                 1.1215
 Frc consts  --     12.0319                 5.2523                 5.8806
 IR Inten    --     87.1135                68.3330               133.6837
  Atom  AN      X      Y      Z        X      Y      Z        X      Y      Z
     1   6    -0.00  -0.00   0.54    -0.00  -0.00   0.06    -0.10   0.00   0.00
     2   8     0.00   0.00  -0.37    -0.00  -0.00   0.00     0.00  -0.00   0.00
     3   1    -0.45   0.00  -0.28     0.61  -0.00  -0.35     0.60   0.00  -0.37
     4   1     0.45   0.00  -0.28    -0.61   0.00  -0.35     0.60  -0.00   0.37

 -------------------
 - Thermochemistry -
 -------------------
 Temperature   298.150 Kelvin.  Pressure   1.00000 Atm.
 Atom     1 has atomic number  6 and mass  12.00000
 Atom     2 has atomic number  8 and mass  15.99491
 Atom     3 has atomic number  1 and mass   1.00783
 Atom     4 has atomic number  1 and mass   1.00783
 Molecular mass:    30.01056 amu.
 Principal axes and moments of inertia in atomic units:
                           1         2         3
     Eigenvalues --     6.28855  46.36887  52.65742
           X           -0.00000   1.00000   0.00006
           Y           -0.00001  -0.00006   1.00000
           Z            1.00000  -0.00000   0.00001
 This molecule is an asymmetric top.
 Rotational symmetry number  1.
 Rotational temperatures (Kelvin)     13.77326     1.86793     1.64485
 Rotational constants (GHZ):         286.98855    38.92140    34.27326
 Zero-point vibrational energy      70185.5 (Joules/Mol)
                                   16.77475 (Kcal/Mol)
 Vibrational temperatures:   1738.88  1835.30  2225.57  2585.51  4205.25
          (Kelvin)           4292.24
 
 Zero-point correction=                           0.026732 (Hartree/Particle)
 Thermal correction to Energy=                    0.029599
 Thermal correction to Enthalpy=                  0.030543
 Thermal correction to Gibbs Free Energy=         0.005079
 Sum of electronic and zero-point Energies=           -114.437360
 Sum of electronic and thermal Energies=              -114.434494
 Sum of electronic and thermal Enthalpies=            -114.433549
 Sum of electronic and thermal Free Energies=         -114.459014
 
                     E (Thermal)             CV                S
                      KCal/Mol        Cal/Mol-Kelvin    Cal/Mol-Kelvin
 Total                   18.574              6.411             53.594
 Electronic               0.000              0.000              0.000
 Translational            0.889              2.981             36.130
 Rotational               0.889              2.981             17.380
 Vibrational             16.796              0.449              0.083
                       Q            Log10(Q)             Ln(Q)
 Total Bot       0.461203D-02         -2.336108         -5.379088
 Total V=0       0.911701D+10          9.959852         22.933408
 Vib (Bot)       0.508816D-12        -12.293439        -28.306690
 Vib (V=0)       0.100582D+01          0.002521          0.005805
 Electronic      0.100000D+01          0.000000          0.000000
 Translational   0.646199D+07          6.810366         15.681448
 Rotational      0.140270D+04          3.146965          7.246154

 **********************************************************************

                  Harmonic vibro-rotational analysis

 **********************************************************************


     ==================================================
               Analysis of the Rotor Symmetry
     ==================================================

 Framework Group : CS  
 Rotor Type      : Asymmetric Top
 Representation  : Ir Representation, Iz < Ix < Iy


 Input/Output information
 ------------------------
 Normal modes will be PRINTED in ASCENDING order (imag. freq. first)

 Normal modes will be READ in ASCENDING order (imag. freq. first)

     ==================================================
                   Coriolis Couplings
     ==================================================

 Coriolis Couplings along the X axis
 -----------------------------------
               1             2             3             4             5 
     1   0.000000D+00
     2   0.000000D+00  0.000000D+00
     3  -0.612359D+00  0.000000D+00  0.000000D+00
     4   0.604533D+00  0.000000D+00  0.000000D+00  0.000000D+00
     5   0.509467D+00  0.000000D+00  0.000000D+00  0.000000D+00  0.000000D+00
     6   0.000000D+00  0.000000D+00  0.000000D+00  0.000000D+00  0.000000D+00
               6 
     6   0.000000D+00

 Coriolis Couplings along the Y axis
 -----------------------------------
               1             2             3             4             5 
     1   0.000000D+00
     2   0.000000D+00  0.000000D+00
     3   0.000000D+00 -0.232076D+00  0.000000D+00
     4   0.000000D+00 -0.335407D+00  0.000000D+00  0.000000D+00
     5   0.000000D+00 -0.913041D+00  0.000000D+00  0.000000D+00  0.000000D+00
     6   0.000000D+00  0.000000D+00 -0.863377D+00  0.503376D+00  0.345368D-01
               6 
     6   0.000000D+00

 Coriolis Couplings along the Z axis
 -----------------------------------
               1             2             3             4             5 
     1   0.000000D+00
     2   0.525814D+00  0.000000D+00
     3   0.000000D+00  0.000000D+00  0.000000D+00
     4   0.000000D+00  0.000000D+00  0.000000D+00  0.000000D+00
     5   0.000000D+00  0.000000D+00  0.000000D+00  0.000000D+00  0.000000D+00
     6   0.850600D+00  0.000000D+00  0.000000D+00  0.000000D+00  0.000000D+00
               6 
     6   0.000000D+00

    3 Coriolis couplings larger than .100D-02 along the X axis
    6 Coriolis couplings larger than .100D-02 along the Y axis
    2 Coriolis couplings larger than .100D-02 along the Z axis

     ==================================================
          Derivatives of the Inertia Moments w.r.t
                Normal modes (in amu^1/2.Ang)
     ==================================================

              Ixx        Ixy        Iyy        Ixz        Iyz        Izz
 Q(  1)     0.00002   -0.00000   -0.00014   -0.00000   -0.00000    0.00011
 Q(  2)    -0.00000   -0.00005    0.00000   -2.11843    0.00013   -0.00000
 Q(  3)    -4.65214    0.00007   -3.44078   -0.00000   -0.00013    1.21136
 Q(  4)    -5.43667   -0.00004   -6.11568    0.00000    0.00003   -0.67902
 Q(  5)     0.85945    0.00014    3.12118    0.00000    0.00008    2.26173
 Q(  6)    -0.00000   -0.00013    0.00000    1.30955   -0.00008    0.00000

     ==================================================
               Vibro-rotational Alpha Matrix
     ==================================================

 Vibro-Rot alpha Matrix (in cm^-1)
 ---------------------------------
                a(z)           b(x)           c(y)
 Q( 1)        1.70931        0.01331       -0.00000
 Q( 2)       -1.55060       -0.00505        0.00553
 Q( 3)       -0.07405       -0.01030        0.00105
 Q( 4)       -0.02003       -0.00752       -0.00271
 Q( 5)       -0.13662       -0.00119       -0.00328
 Q( 6)       -0.17435       -0.00083       -0.00420

 Vibro-Rot alpha Matrix (in MHz)
 -------------------------------
                 a              b              c 
 Q( 1)    51243.95464      399.03671       -0.00000
 Q( 2)   -46485.91818     -151.42958      165.83874
 Q( 3)    -2219.96950     -308.74276       31.42016
 Q( 4)     -600.41836     -225.56895      -81.38432
 Q( 5)    -4095.72149      -35.80333      -98.28200
 Q( 6)    -5226.84138      -24.74275     -125.76538

     ==================================================
          Quartic Centrifugal Distortion Constants
     ==================================================

 NOTE: Values in Cartesian coords. refer to the structure in Input orientation


 Quartic Centrifugal Distortion Constants Tau Prime
 --------------------------------------------------
                      cm^-1                    MHz
 TauP aaaa     -0.2699790320D-02        -0.8093767762D+02
 TauP bbaa     -0.1802120665D-03        -0.5402621837D+01
 TauP bbbb     -0.1232579530D-04        -0.3695180468D+00
 TauP ccaa     -0.1052481429D-04        -0.3155259946D+00
 TauP ccbb     -0.9042975205D-05        -0.2711015764D+00
 TauP cccc     -0.7162159201D-05        -0.2147161311D+00

 Asymmetric Top Reduction
 Asymmetric Top Parameter Kappa :       -0.9632144103
 Asymmetric Top Parameter Sigma :      107.7382323541

 Constants in the Asymmetrically reduced Hamiltonian
 ---------------------------------------------------
                        cm^-1                   MHz
  DELTA J  :    0.2435994312D-05         0.7302927225D-01
  DELTA K  :    0.6298746047D-03         0.1888316560D+02
  DELTA JK :    0.4263698106D-04         0.1278224535D+01
  delta J  :    0.3227272559D-06         0.9675119730D-02
  delta K  :    0.3032876939D-04         0.9092336323D+00

 Effective Rotational Constants
 (Include Terms due to Quartic Centrifugal Distortion Constants)
 ---------------------------------------------------------------
           Be in cm^-1             B(A) in cm^-1            B(A) in MHz
 a          9.572907579             9.572907229             286988.53882
 b          1.298278098             1.298297154              38921.96950
 c          1.143232819             1.143214113              34272.69690

 Nielsen Centrifugal Distortion Constants
 ----------------------------------------
                cm^-1                    MHz
 DJ     0.2392181684D-05         0.7171580271D-01
 DJK    0.4289985683D-04         0.1286105353D+01
 DK     0.6296555415D-03         0.1887659825D+02
 dJ     0.3227272559D-06         0.9675119730D-02
 R5    -0.1044408963D-04        -0.3131059303D+00
 R6    -0.2190631384D-07        -0.6567347671D-03

 Constants in the Symmetrically Reduced Hamiltonian
 --------------------------------------------------
                    cm^-1                     MHz
  D J  :    0.2295242191D-05         0.6880962982D-01
[...]
    2(1)    1(1)       -0.202483E-02     -0.368524E-06     -0.148752E-11
    3(1)    1(1)       -0.832327E-02     -0.752698E-07     -0.207842E-12
    3(1)    2(1)       -0.495950E-12     -0.661056E-08      0.485591E-02
    4(1)    1(1)        0.252444E-02      0.898324E-07      0.226241E-12
    4(1)    2(1)        0.410318E-12      0.655887E-08      0.189651E-03
    4(1)    3(1)       -0.325513E-11     -0.356068E-07     -0.157026E-02
    5(1)    1(1)        0.118346E-11      0.184871E-07      0.435425E-03
    5(1)    2(1)       -0.229570E-02      0.221466E-07     -0.110288E-12
    5(1)    3(1)       -0.841373E-03      0.305655E-07      0.896371E-13
    5(1)    4(1)       -0.408305E-02     -0.134883E-07     -0.294518E-12
    6(1)    1(1)        0.000000E+00      0.000000E+00      0.000000E+00
    6(1)    2(1)        0.141778E-07     -0.697534E-03      0.762904E-07
    6(1)    3(1)        0.392320E-08     -0.345890E-02      0.211107E-07
    6(1)    4(1)       -0.667141E-08      0.409658E-03     -0.358987E-07
    6(1)    5(1)        0.000000E+00      0.000000E+00      0.000000E+00
 ERROR: Missing derivatives of the polarizability tensor moment.

     ==================================================
              Anharmonic Infrared Spectroscopy
     ==================================================

 Units: Energies (E) in cm^-1
        Integrated intensity (I) in km.mol^-1

 Fundamental Bands
 -----------------
    Mode(Quanta)       E(harm)   E(anharm)       I(harm)        I(anharm)
     1(1)              2983.257   2845.332    133.68371476    155.10515167
     2(1)              2922.798   2773.943     68.33300411     69.47329897
     3(1)              1797.022   1767.410     87.11347083     90.03329381
     4(1)              1546.849   1513.957     10.44090461      9.26247449
     5(1)              1275.598   1254.373     11.84183909     12.54316677
     6(1)              1208.582   1189.552      3.48192739      3.58205665

 Overtones
 ---------
    Mode(Quanta)       E(harm)   E(anharm)                      I(anharm)
     1(2)              5966.514   5534.032                      1.32217288
     2(2)              5845.596   5486.396                      0.02186305
     3(2)              3594.043   3515.763                      4.69536007
     4(2)              3093.699   3029.113                      3.26289216
     5(2)              2551.197   2504.643                      0.47543429
     6(2)              2417.165   2372.938                      0.11312250

 Combination Bands
 -----------------
    Mode(Quanta)       E(harm)   E(anharm)                      I(anharm)
     2(1)     1(1)     5906.055   5448.143                      0.36172780
     3(1)     1(1)     4780.279   4570.935                      5.12801826
     3(1)     2(1)     4719.819   4540.128                      1.73367007
     4(1)     1(1)     4530.106   4284.157                      0.44213161
     4(1)     2(1)     4469.647   4257.706                      0.00247995
     4(1)     3(1)     3343.871   3274.489                      0.13075005
     5(1)     1(1)     4258.855   4027.867                      0.01236686
     5(1)     2(1)     4198.396   4021.260                      0.34320030
     5(1)     3(1)     3072.620   3027.853                      0.03471114
     5(1)     4(1)     2822.448   2716.435                      0.73337420
     6(1)     1(1)     4191.839   3973.607                      0.00000000
     6(1)     2(1)     4131.380   3956.683                      0.03117586
     6(1)     3(1)     3005.604   2950.838                      0.57171403
     6(1)     4(1)     2755.432   2703.205                      0.00734649
     6(1)     5(1)     2484.181   2451.019                      0.00000000

 Leave Link  717 at Wed Jun 26 12:35:00 2019, MaxMem=  2155872256 cpu:         1.4
 (Enter /soft/gaussian/09-e.01/g09/l103.exe)

 GradGradGradGradGradGradGradGradGradGradGradGradGradGradGradGradGradGrad
 Berny optimization.
 Search for a local minimum.
 Step number   1 out of a maximum of    2
 All quantities printed in internal units (Hartrees-Bohrs-Radians)
 Second derivative matrix not updated -- analytic derivatives used.
 The second derivative matrix:
                          r1        r2        a2        r3        a3
           r1           0.85388
           r2           0.03633   0.30952
           a2           0.05574  -0.00766   0.28955
           r3           0.03633   0.00599  -0.01978   0.30952
           a3           0.05574  -0.01978   0.09954  -0.00766   0.28955
           d3          -0.00000  -0.00000   0.00000  -0.00000   0.00000
                          d3
           d3           0.06208
 ITU=  0
     Eigenvalues ---    0.06208   0.18873   0.29607   0.30481   0.39165
     Eigenvalues ---    0.87076
 Angle between quadratic step and forces=  22.05 degrees.
 Linear search not attempted -- first point.
 Variable       Old X    -DE/DX   Delta X   Delta X   Delta X     New X
                                 (Linear)    (Quad)   (Total)
    r1        2.27485   0.00017   0.00000   0.00025   0.00025   2.27511
    r2        2.08437  -0.00000   0.00000  -0.00006  -0.00006   2.08431
    a2        2.13051  -0.00013   0.00000  -0.00036  -0.00036   2.13014
    r3        2.08437  -0.00000   0.00000  -0.00006  -0.00006   2.08431
    a3        2.13051  -0.00013   0.00000  -0.00036  -0.00036   2.13014
    d3        3.14171  -0.00001   0.00000  -0.00012  -0.00012   3.14159
         Item               Value     Threshold  Converged?
 Maximum Force            0.000173     0.000450     YES
 RMS     Force            0.000101     0.000300     YES
 Maximum Displacement     0.000363     0.001800     YES
 RMS     Displacement     0.000242     0.001200     YES
 Predicted change in Energy=-6.798110D-08
 Optimization completed.
    -- Stationary point found.
                       ----------------------------
                       !   Optimized Parameters   !
                       ! (Angstroms and Degrees)  !
 ----------------------                            ----------------------
 !      Name          Value   Derivative information (Atomic Units)     !
 ------------------------------------------------------------------------
 !       r1          1.2038   -DE/DX =    0.0002                        !
 !       r2          1.103    -DE/DX =    0.0                           !
 !       a2        122.069    -DE/DX =   -0.0001                        !
 !       r3          1.103    -DE/DX =    0.0                           !
 !       a3        122.069    -DE/DX =   -0.0001                        !
 !       d3        180.007    -DE/DX =    0.0                           !
 ------------------------------------------------------------------------
 GradGradGradGradGradGradGradGradGradGradGradGradGradGradGradGradGradGrad

 Leave Link  103 at Wed Jun 26 12:35:00 2019, MaxMem=  2155872256 cpu:         0.2
 (Enter /soft/gaussian/09-e.01/g09/l9999.exe)
 1\1\GINC-B435\Freq\RB2PLYPD3-FC\CC-pVTZ\C1H2O1\KMOORE\26-Jun-2019\1\\#
 P Geom=AllCheck Guess=TCheck SCRF=Check GenChk RB2PLYPD3(FC)/CC-pVTZ F
 req\\C=O\\0,1\C\O,1,r1\H,1,r2,2,a2\H,1,r3,2,a3,3,d3,0\\r1=1.2038\r2=1.
 103\a2=122.069\r3=1.103\a3=122.069\d3=180.007\\Version=ES64L-G09RevE.0
 1\HF=-114.3341403\MP2=-114.4640924\RMSD=4.726e-09\RMSF=9.702e-05\ZeroP
 oint=0.0267323\Thermal=0.0295988\Dipole=0.,0.0000172,-0.9009365\Dipole
 Deriv=0.8286345,-0.0000409,0.,-0.0000409,0.1588021,-0.0000479,0.,-0.00
 00397,0.972654,-0.435537,0.0000072,0.,0.0000072,-0.3184011,0.0000065,0
 .,0.0000298,-0.8433711,-0.1965488,0.0000157,0.1393998,0.,0.0797995,0.0
 000122,0.0977139,-0.000001,-0.0646415,-0.1965488,0.0000181,-0.1393998,
 0.0000338,0.0797995,0.0000292,-0.0977139,0.0000109,-0.0646415\Polar=15
 .7209119,-0.0003566,9.8828057,0.,-0.0002077,20.2965038\Quadrupole=0.71
 93825,0.7290851,-1.4484675,0.0000006,0.,-0.000011\PG=CS [SG(C1O1),X(H2
 )]\NImag=0\\0.59058179,-0.00002535,0.17558884,0.,-0.00001640,0.9688470
 3,-0.10687807,0.00000302,0.,0.07335423,0.00000302,-0.05738173,0.000002
 80,-0.00000334,0.01872760,0.,0.00000583,-0.76998667,0.,-0.00000582,0.8
 5388493,-0.24185186,0.00000382,0.07932148,0.01676192,-0.00000050,0.016
 58534,0.24438929,0.,-0.05910355,0.00000196,0.,0.01932707,-0.00000102,-
 0.00000406,0.01988046,0.08262604,0.00000024,-0.09943018,0.03678513,-0.
 00000074,-0.04194913,-0.10765899,-0.00000047,0.13177727,-0.24185186,0.
 00001850,-0.07932148,0.01676192,0.00000082,-0.01658534,-0.01929936,0.0
 0000406,-0.01175217,0.24438929,0.00002232,-0.05910356,0.00001164,0.000
 00031,0.01932707,0.00000101,0.00000073,0.01989602,0.00000096,-0.000023
 37,0.01988047,-0.08262604,0.00001033,-0.09943018,-0.03678513,0.0000037
 6,-0.04194913,0.01175217,-0.00000047,0.00960204,0.10765899,-0.00001361
 ,0.13177727\\0.,-0.00001275,0.00027509,0.,0.00000417,-0.00017273,-0.00
 003152,0.00000429,-0.00005118,0.00003152,0.00000429,-0.00005118\\-0.00
 001906,0.,0.00000858,-0.00000379,-0.06216886,-0.00003379,0.00000097,0.
 ,-0.00000223,0.00000022,0.,0.00000217,-0.03635716,0.,0.00000011,-0.000
 00079,-0.01292720,0.00001589,0.00000139,0.02298477,-0.00001291,0.00000
 097,-0.05022900,-0.00000537,-0.00000072,-0.00373658,0.00000084,0.00000
 090,-0.07949797,0.00000247,0.04926301,0.00177978,-0.00000101,-0.005028
 79,0.06584189,-0.00000010,-0.00000768,0.03754803,0.00000898,0.00000133
 ,0.00668619,-0.00000151,0.00000537,-0.04530173,-0.00000742,0.00001712,
 0.05022899,0.00001139,-0.00000047,0.00373658,-0.00000144,-0.00000115,0
 .01187631,0.00000097,-0.00001550,0.07949797,-0.00001322,0.04926301,-0.
 00177978,-0.00000127,-0.00502878,-0.01187631,-0.00000135,0.00106750,-0
 .06584188,0.00001584,0.00001225,0.03754803,0.00000893,-0.00000049,0.00
 668619,-0.00000147,-0.00000084,0.00106750,-0.00000005,-0.00001092,-0.0
 4530173,-0.00000741,-0.00000126,0.00000381,0.00000116,0.09151980,-0.00
 000554,0.00000104,0.00000004,0.00000054,-0.02087709,0.00000012,0.00000
 015,-0.00000183,0.00000130,0.00000139,0.00000214,0.00031697,-0.0000000
 1,-0.00000051,-0.01770074,0.00000107,-0.00000075,-0.04979971,0.0000001
 2,-0.03532121,-0.00702765,0.00000053,0.00869163,0.05682720,0.00000033,
 -0.01197577,-0.00000092,0.00000033,0.01423251,0.00000045,-0.00000011,-
 0.00225665,-0.04591847,0.00000084,0.06923553,0.01928841,0.00000001,-0.
 03164389,0.03146414,-0.00000049,-0.03759177,0.04980093,-0.00000448,-0.
 03532150,0.00702749,-0.00000207,0.00869214,0.00000016,-0.00000056,-0.0
 0483408,-0.05682858,-0.00000430,0.01197644,0.00000516,-0.00000227,-0.0
 1423283,-0.00000151,-0.00000055,-0.00000009,-0.00000036,0.00000711,0.0
 0225648,-0.04591831,0.00000472,-0.06923606,0.01928943,-0.00000238,0.03
 164514,-0.00483456,0.00000095,0.00000013,0.03146344,-0.00000329,0.0375
 9078,0.13493630,-0.00001079,-0.04300336,0.,0.00000511,0.19035726,0.022
 38723,0.00000092,0.,-0.01801832,0.00000091,0.03737112,0.00000073,-0.00
 000224,-0.05465462,0.,-0.00000086,-0.30272670,0.,-0.00000124,0.3538392
 9,-0.07866176,0.00000554,-0.01148121,-0.00218445,0.00000016,0.00968991
 ,0.04991446,0.00000562,0.00281612,-0.00000223,0.00000005,0.00864175,0.
 00000046,-0.00000294,0.00258904,-0.03013404,-0.00000029,0.05618472,0.0
 2128118,-0.00000105,-0.02555629,0.00532208,0.00000269,-0.02718985,-0.0
 7866176,0.00000433,0.01148121,-0.00218445,0.00000117,-0.00968991,0.030
 93175,-0.00000273,0.00353077,0.04991446,0.00000425,0.00281612,-0.00000
 362,0.00000127,0.00864175,0.00000164,-0.00000276,-0.01404691,-0.000001
 36,-0.00000277,0.00258904,0.03013403,-0.00000397,0.05618472,-0.0212811
 8,0.00000155,-0.02555629,-0.00353077,-0.00000092,-0.00343858,-0.005322
 08,0.00000334,-0.02718985,-0.21633311,0.00000873,-0.07261729,0.,0.0000
 0110,1.09454279,0.08445788,0.00000094,0.,-0.09555280,0.00000094,0.0997
 9869,0.00000004,-0.00000103,-0.11246546,0.,-0.00000063,-1.05945365,0.,
 -0.00000154,1.08445890,0.06593762,-0.00000311,-0.01739223,0.00554746,-
 0.00000019,0.01465988,-0.04750870,-0.00000287,-0.01359070,0.00000049,0
 .,0.00633338,0.00000019,0.00000101,-0.00266213,-0.01237019,0.00000052,
 -0.01754457,0.00998674,0.00000014,-0.01250263,0.00255790,-0.00000124,0
 .02791524,0.06593762,-0.00000656,0.01739223,0.00554746,0.00000028,-0.0
 1465988,-0.02397637,0.00000185,-0.00017446,-0.04750870,-0.00000681,-0.
 01359070,-0.00000163,0.00000009,0.00633338,0.00000198,0.00000229,0.009
 91945,0.00000057,0.00000443,-0.00266213,0.01237019,-0.00000099,-0.0175
 4457,-0.00998674,0.00000136,-0.01250263,0.00017446,0.00000055,0.002131
 96,-0.00255790,-0.00000092,0.02791524,-1.03544961,0.00007022,0.1108055
 0,0.,0.00004631,-0.21984578,0.02511984,-0.00000075,0.,-0.00140856,-0.0
 0000075,0.01287880,-0.00000176,0.00000025,0.00266173,0.,-0.00000583,-0
 .07355392,0.,0.00000262,0.05731693,0.50516489,-0.00000264,-0.33286189,
 -0.01185564,-0.00000002,0.01475749,-0.50568397,0.00000044,-0.06184216,
 -0.00000192,0.00000007,-0.00777026,0.00000071,0.00000309,0.09017922,-0
 .33348363,0.00000015,0.14669985,-0.01282703,0.00000035,0.00811850,0.33
 220753,0.00000081,-0.14664313,0.50516488,-0.00006683,0.33286189,-0.011
 85564,0.00000052,-0.01475749,0.01237472,-0.00000360,0.01410313,-0.5056
 8396,-0.00006991,-0.06184215,-0.00004264,0.00000044,-0.00777026,0.0000
 0251,-0.00000043,-0.02056680,-0.00000131,0.00006990,0.09017921,0.33348
 363,-0.00004063,0.14669985,0.01282703,-0.00000122,0.00811849,-0.014103
 13,0.00000041,-0.00817521,-0.33220753,0.00004144,-0.14664313,0.0000001
 7,-0.00007563,-0.00000018,0.85768446,-0.00005244,-0.00000018,0.,0.0000
 0147,-0.03145852,-0.00000002,0.00000043,0.00000028,0.00000192,-0.00000
 026,-0.00000033,-0.11651080,0.00000711,0.00000010,0.04730891,-0.000002
 89,0.00000010,0.50116944,0.00000110,-0.41311299,-0.00887705,0.00000005
 ,0.03460098,-0.49229236,0.00000162,-0.08613577,-0.00000107,-0.00000047
 ,-0.00670539,0.00000048,0.00000053,0.09284115,-0.37058682,-0.00000028,
 0.17144662,-0.00792512,0.00000009,-0.00107691,0.36274966,0.00000135,-0
 .17036968,-0.50116960,0.00007307,-0.41311294,0.00887708,-0.00000022,0.
 03460090,-0.00000003,-0.00000168,0.01576228,0.49229255,0.00007358,0.08
 613566,0.00005158,-0.00000074,0.00670544,-0.00000471,-0.00000167,0.000
 00002,-0.00000116,-0.00007117,-0.09284112,-0.37058684,0.00004560,-0.17
 144653,-0.00792527,0.00000088,0.00107672,0.01576235,-0.00000077,-0.000
 00002,0.36274977,-0.00004571,0.17036984,-0.49814204,0.00003365,0.07690
 194,-0.00000007,-0.00004853,-0.26224725,0.02213155,0.00000025,0.,-0.00
 953770,0.00000019,0.02589320,0.00004439,0.00000053,-0.00109395,0.,0.00
 007654,0.09056595,0.,-0.00005358,-0.07835769,0.23800524,-0.00001523,-0
 .15109634,-0.00629693,0.00000709,0.01455797,-0.21573724,0.00001986,-0.
 05139761,0.00001005,-0.00001510,-0.01239961,-0.00001232,0.00000150,0.0
 7574121,-0.15332323,-0.00000586,0.08584059,-0.00123449,0.00000460,-0.0
 0610413,0.14554804,0.00000245,-0.07794219,0.23800524,-0.00001867,0.151
 09641,-0.00629693,-0.00000780,-0.01455797,-0.01597108,-0.00000625,0.00
 900968,-0.21573723,-0.00005370,-0.05139753,-0.00000591,0.00001432,-0.0
 1239963,-0.00001064,0.00000664,-0.01194399,-0.00000119,0.00003273,0.07
 574115,0.15332331,-0.00002215,0.08584072,0.00123449,0.00000459,-0.0061
 0414,-0.00900967,-0.00000018,-0.00179427,-0.14554812,0.00001774,-0.077
 94230,-0.38873965,0.00002455,0.01085788,-0.00003582,0.00001521,-0.1586
 8714,0.02843866,-0.00000065,0.00002479,-0.00721361,-0.00000071,0.01926
 929,0.00000163,-0.00000105,-0.02591630,0.00003049,-0.00000177,0.074703
 65,-0.00001982,-0.00000213,-0.03826015,0.18014660,-0.00000122,-0.13336
 794,-0.01060996,-0.00000037,0.02800188,-0.17664938,0.00000012,-0.01506
 795,-0.00000066,-0.00000010,0.00332125,0.00000019,0.00000149,0.0156039
 9,-0.12236309,0.00000025,0.04199006,0.00150049,0.00000032,-0.01822566,
 0.11311484,0.00000017,-0.01558231,0.18015439,-0.00002268,0.13337898,-0
 .01061510,0.00000213,-0.02801255,0.00711275,-0.00000152,0.00774776,-0.
 17665203,-0.00002396,-0.01505922,-0.00001619,0.00000180,0.00332576,0.0
 0000371,0.00000010,-0.00385729,-0.00000074,0.00002207,0.01559074,0.122
 36842,-0.00001369,0.04199343,-0.00150545,0.00000017,-0.01821784,-0.007
 74879,0.00000030,-0.00818209,-0.11311419,0.00001322,-0.01559350,-0.375
 58684,0.00002169,-0.01620989,-0.00000008,0.00001131,-0.04309985,0.0525
 5304,-0.00000126,0.00000001,-0.02225162,-0.00000129,0.03146127,0.00000
 069,-0.00000090,-0.03693350,0.,-0.00000086,-0.08513084,0.,-0.00000003,
 0.09841973,0.16151690,-0.00000109,-0.11946674,-0.01515071,0.00000103,0
 .02478059,-0.12892124,0.00000288,-0.00762567,0.00000083,0.00000066,0.0
 0273612,-0.00000106,-0.00000302,0.00113400,-0.13200342,0.00000237,0.06
 411529,0.00379827,-0.00000057,-0.00664444,0.11144565,-0.00000082,-0.05
 889992,0.16151690,-0.00001933,0.11946681,-0.01515071,0.00000115,-0.024
 78059,-0.01744494,-0.00000052,0.01675950,-0.12892125,-0.00002328,-0.00
 762571,-0.00001283,0.00000150,0.00273613,0.00000194,0.00000308,0.00375
 555,-0.00000098,0.00001870,0.00113403,0.13200351,-0.00001283,0.0641154
 0,-0.00379828,-0.00000009,-0.00664445,-0.01675951,0.00000105,0.0014290
 7,-0.11144572,0.00001186,-0.05890002,-0.31699840,0.00000709,-0.2006797
 6,-0.00000007,0.00000933,1.13153226,0.21090942,-0.00000060,0.,-0.20352
 910,-0.00000059,0.20125964,-0.00000342,0.,-0.20363494,-0.00000001,-0.0
 0000460,-1.19245050,0.,0.00000274,1.20466925,0.05304446,0.00000006,-0.
 04517189,-0.00369015,0.00000011,0.00813068,-0.03699966,0.00000184,-0.0
 0028982,-0.00000036,0.,0.00118766,0.00000045,-0.00000183,-0.00229240,-
 0.05574955,0.00000086,0.03045907,0.00178761,0.00000023,-0.00610937,0.0
 4550158,-0.00000017,-0.02839844,0.05304451,-0.00000656,0.04517196,-0.0
 0369015,0.00000048,-0.00813067,-0.01235465,-0.00000001,0.00846036,-0.0
 3699970,-0.00000834,-0.00029005,-0.00000555,0.00000060,0.00118766,0.00
 000141,0.00000166,0.00139456,-0.00000092,0.00000608,-0.00229216,0.0557
 4962,-0.00000559,0.03045917,-0.00178761,0.00000045,-0.00610938,-0.0084
 6036,0.00000009,0.00404874,-0.04550165,0.00000505,-0.02839853,1.924650
 77,-0.00015831,-0.54275547,-0.00000007,-0.00009976,0.46176899,-0.00458
 391,0.00000011,0.,-0.00832783,0.00000013,-0.00275435,-0.00000268,0.000
 00048,-0.00060015,0.,0.00000181,-0.05738877,0.,0.00000180,0.02983976,-
 0.96003344,0.00000256,0.72244781,0.00645587,-0.00000027,-0.02152454,0.
 94592741,-0.00000337,0.27275486,0.00000378,0.,0.00167725,-0.00000047,-
 0.00000046,-0.29926068,0.74236841,0.00000027,-0.20219018,0.00253327,0.
 00000029,0.01377451,-0.72291247,-0.00000275,0.17452503,-0.96003343,0.0
 0015565,-0.72244772,0.00645587,-0.00000034,0.02152454,0.00765015,0.000
 00383,-0.02198921,0.94592740,0.00016155,0.27275495,0.00009866,-0.00000
 058,0.00167725,-0.00000313,-0.00000183,0.02482856,0.00000219,-0.000159
 14,-0.29926077,-0.74236833,0.00009769,-0.20219005,-0.00253327,0.000000
 59,0.01377450,0.02198921,-0.00000056,0.01389065,0.72291239,-0.00009772
 ,0.17452490,1.93737261,-0.00016555,-0.63320344,-0.00000339,-0.00011648
 ,0.43268466,-0.02272675,-0.00000018,0.00001201,0.01344040,-0.00000009,
 -0.02628304,-0.00000132,0.00000039,0.02070826,0.00001010,0.00000236,0.
 06568387,-0.00001414,0.00000068,-0.07545148,-0.95731465,-0.00000291,0.
 88222682,0.00464335,-0.00000032,-0.03188021,0.93892550,-0.00000507,0.3
 2973909,0.00000152,0.00000038,0.00279087,0.00000045,0.00000513,-0.3276
 4002,0.86236077,0.00000089,-0.24918293,-0.00178249,0.00000037,0.004878
 63,-0.85546362,-0.00000288,0.25969789,-0.95733121,0.00016863,-0.882235
 44,0.00464301,0.00000002,0.03188425,0.01374580,-0.00000044,-0.00511465
 ,0.93894239,0.00017071,0.32974740,0.00011628,-0.00000059,0.00278391,-0
 .00000350,-0.00000191,-0.00488993,0.00000162,-0.00016822,-0.32764139,-
 0.86236748,0.00011322,-0.24918560,0.00178462,0.00000026,0.00488899,0.0
 0511702,0.00000091,-0.01539359,0.85546584,-0.00011439,0.25969020\\@


 MICRO CREDO - NEVER TRUST A COMPUTER BIGGER
               BIGGER THAN YOU CAN LIFT.
 Job cpu time:       0 days  1 hours  0 minutes 55.8 seconds.
 File lengths (MBytes):  RWF=    436 Int=      0 D2E=      0 Chk=     40 Scr=      2
 Normal termination of Gaussian 09 at Wed Jun 26 12:35:00 2019.
