
 Primary working directories    : /scratch/kmoore
 Secondary working directories  : /scratch/kmoore
 Wavefunction directory         : /scratch/kmoore/
 Main file repository           : /scratch/kmoore/

 SHA1      : b6b3a4772808bb2d43777f23454e145ddfe12dc3
 NAME      : 2015.1.1
 ARCHNAME  : linux/x86_64
 FC        : /soft/mvapich2/2.2b_psm/intel-15.0/bin/mpif90
 BLASLIB   : -L/soft/intel/15.0.1/composer_xe_2015.0.090/mkl/lib/intel64 -lmkl_intel_ilp64 -lmkl_sequential -lmkl_core
 id        : anlgov

 Nodes     nprocs
 b433         7
 Number of processes for MPI-2 version of Molpro:   nprocs(total)=    8   nprocs(compute)=    7   nprocs(helper)=    1

 Using customized tuning parameters: mindgm=1; mindgv=20; mindgc=4; mindgr=1; noblas=0; minvec=7
 default implementation of scratch files=sf  

 memory,1000,m
 gprint,civector
 gthresh,energy=1.0d-10,orbital=1.0d-10
 
 nosym
 angstrom
 Geometry = {
 X
 C 1 RX
 N 2 R1 1 AX
 O 2 RS 1 A1 3 DX
 H 4 R3 2 A2 1 D1
 }
 
 R1 =    1.1486
 R3 =    0.9659
 A1 =   90.0
 A2 =  110.4436
 D1 =    0.0
 RX =    2.0
 AX =   90.0
 DX = -180.0
 RS =    3.2958
 
 basis=cc-pVTZ
 {uhf,maxit=300
  wf,22,1,0,0}
 {casscf,maxit=40
  closed,10
     occ,12
      wf,22,1,0,0}
 
 DR=-0.1
 DO rS=3.2958,1.2958,DR,Angstrom
 
 basis=cc-pVTZ
 {casscf,maxit=40
  closed,10
     occ,12
      wf,22,1,0,0}
 {rs2,shift=0.25}
 {optg,gradient=1.0d-5,maxit=100
  inactive,RS,RX,AX,DX}
 enddo
 

 Variables initialized (889), CPU time= 0.01 sec
 Commands  initialized (702), CPU time= 0.01 sec, 572 directives.
 Default parameters read. Elapsed time= 0.06 sec

 Checking input...
 Passed
1


                                         ***  PROGRAM SYSTEM MOLPRO  ***
                                       Copyright, TTI GmbH Stuttgart, 2015
                                    Version 2015.1 linked Jan  8 2016 07:59:11


 **********************************************************************************************************************************
 LABEL *                                                                                 
  64 bit mpp version                                                                     DATE: 01-Nov-18          TIME: 14:31:36  
 **********************************************************************************************************************************

 SHA1:             b6b3a4772808bb2d43777f23454e145ddfe12dc3
 **********************************************************************************************************************************


 THRESHOLDS:

 ZERO    =  1.00D-12  ONEINT  =  1.00D-12  TWOINT  =  1.00D-11  PREFAC  =  1.00D-14  LOCALI  =  1.00D-09  EORDER  =  1.00D-04
 ENERGY  =  1.00D-10  ETEST   =  0.00D+00  EDENS   =  0.00D+00  THRDEDEF=  1.00D-06  GRADIENT=  1.00D-02  STEP    =  1.00D-03
 ORBITAL =  1.00D-10  CIVEC   =  1.00D-05  COEFF   =  1.00D-04  PRINTCI =  5.00D-02  PUNCHCI =  9.90D+01  OPTGRAD =  3.00D-04
 OPTENERG=  1.00D-06  OPTSTEP =  3.00D-04  THRGRAD =  1.00D-10  COMPRESS=  1.00D-11  VARMIN  =  1.00D-07  VARMAX  =  1.00D-03
 THRDOUB =  0.00D+00  THRDIV  =  1.00D-05  THRRED  =  1.00D-07  THRPSP  =  1.00D+00  THRDC   =  1.00D-10  THRCS   =  1.00D-10
 THRNRM  =  1.00D-08  THREQ   =  0.00D+00  THRDE   =  1.00D+00  THRREF  =  1.00D-05  SPARFAC =  1.00D+00  THRDLP  =  1.00D-07
 THRDIA  =  1.00D-10  THRDLS  =  1.00D-07  THRGPS  =  0.00D+00  THRKEX  =  0.00D+00  THRDIS  =  2.00D-01  THRVAR  =  1.00D-10
 THRLOC  =  1.00D-06  THRGAP  =  1.00D-06  THRLOCT = -1.00D+00  THRGAPT = -1.00D+00  THRORB  =  1.00D-06  THRMLTP =  0.00D+00
 THRCPQCI=  1.00D-10  KEXTA   =  0.00D+00  THRCOARS=  0.00D+00  SYMTOL  =  1.00D-06  GRADTOL =  1.00D-06  THROVL  =  1.00D-08
 THRORTH =  1.00D-08  GRID    =  1.00D-06  GRIDMAX =  1.00D-03  DTMAX   =  0.00D+00  THROCCDE=  1.00D-01  THROCCDE=  1.00D-01



 Variable memory set to 1000000000 words,  buffer space   230000 words

 ZSYMEL=NOSYM
 ZUNIT=ANG
 
 SETTING R1             =         1.14860000                                  
 SETTING R3             =         0.96590000                                  
 SETTING A1             =        90.00000000                                  
 SETTING A2             =       110.44360000                                  
 SETTING D1             =     0.00000000D+00                                  
 SETTING RX             =         2.00000000                                  
 SETTING AX             =        90.00000000                                  
 SETTING DX             =      -180.00000000                                  
 SETTING RS             =         3.29580000                                  
 SETTING BASIS          =    CC-PVTZ


 Recomputing integrals since basis changed


 Using spherical harmonics

 Library entry C      S cc-pVTZ              selected for orbital group  1
 Library entry C      P cc-pVTZ              selected for orbital group  1
 Library entry C      D cc-pVTZ              selected for orbital group  1
 Library entry C      F cc-pVTZ              selected for orbital group  1
 Library entry N      S cc-pVTZ              selected for orbital group  2
 Library entry N      P cc-pVTZ              selected for orbital group  2
 Library entry N      D cc-pVTZ              selected for orbital group  2
 Library entry N      F cc-pVTZ              selected for orbital group  2
 Library entry O      S cc-pVTZ              selected for orbital group  3
 Library entry O      P cc-pVTZ              selected for orbital group  3
 Library entry O      D cc-pVTZ              selected for orbital group  3
 Library entry O      F cc-pVTZ              selected for orbital group  3
 Library entry H      S cc-pVTZ              selected for orbital group  4
 Library entry H      P cc-pVTZ              selected for orbital group  4
 Library entry H      D cc-pVTZ              selected for orbital group  4

1PROGRAM * SEWARD (Integral evaluation for generally contracted gaussian basis sets)     Author: Roland Lindh, 1990

 Geometry written to block  1 of record 700

 Orientation using atomic masses  
 Molecule type: Asymmetric top
 Rotational constants:       2.9970826      3.0108326    656.2663030 GHz  (calculated with average atomic masses)

 Point group  C1  



 ATOMIC COORDINATES

 NR  ATOM    CHARGE       X              Y              Z

   1  C       6.00    0.000000000   -0.013998818    1.770644787
   2  N       7.00    0.000000000    0.017959188    3.940948933
   3  O       8.00    0.000000000   -0.105699320   -4.456839461
   4  H       1.00    0.000000000    1.595051839   -5.119497872

 Bond lengths in Bohr (Angstrom)

 1-2  2.170539427  3-4  1.825286464
     ( 1.148600000)     ( 0.965900000)

 NUCLEAR CHARGE:                   22
 NUMBER OF PRIMITIVE AOS:         158
 NUMBER OF SYMMETRY AOS:          142
 NUMBER OF CONTRACTIONS:          104   ( 104A   )
 NUMBER OF CORE ORBITALS:           3   (   3A   )
 NUMBER OF VALENCE ORBITALS:       13   (  13A   )


 NUCLEAR REPULSION ENERGY   39.71667111

 EXTRA SYMMETRY OF AOS IN SYMMETRY 1:   1 1 1 1 2 1 1 2 1 1   2 1 1 1 2 2 1 1 1 2   2 1 1 2 1 1 2 2 1 1   1 1 1 1 2 1 1 2 1 1
                                        2 1 1 1 2 2 1 1 1 2   2 1 1 2 1 1 2 2 1 1   1 1 1 1 2 1 1 2 1 1   2 1 1 1 2 2 1 1 1 2
                                        2 1 1 2 1 1 2 2 1 1   1 1 1 2 1 1 2 1 1 1   2 2 1 1

 Eigenvalues of metric

         1 0.153E-02 0.284E-02 0.387E-02 0.763E-02 0.109E-01 0.128E-01 0.190E-01 0.190E-01


 Contracted 2-electron integrals neglected if value below      1.0D-14
 AO integral compression algorithm  1   Integral accuracy      1.0D-14

     38.797 MB (compressed) written to integral file ( 27.6%)

     Node minimum: 4.981 MB, node maximum: 6.029 MB


 NUMBER OF SORTED TWO-ELECTRON INTEGRALS:    2132130.     BUFFER LENGTH:  32768
 NUMBER OF SEGMENTS:   1  SEGMENT LENGTH:    2132130      RECORD LENGTH: 524288

 Memory used in sort:       2.69 MW

 SORT1 READ    17445292. AND WROTE      838523. INTEGRALS IN      3 RECORDS. CPU TIME:     0.16 SEC, REAL TIME:     0.18 SEC
 SORT2 READ     5760218. AND WROTE    14908530. INTEGRALS IN    133 RECORDS. CPU TIME:     0.04 SEC, REAL TIME:     0.04 SEC

 Node minimum:     2127450.  Node maximum:     2132130. integrals

 OPERATOR DM      FOR CENTER  0  COORDINATES:    0.000000    0.000000    0.000000


 **********************************************************************************************************************************
 DATASETS  * FILE   NREC   LENGTH (MB)   RECORD NAMES
              1      18       19.54       500      610      700      900      950      970     1000      129      960     1100   
                                          VAR    BASINP    GEOM    SYMINP    ZMAT    AOBASIS   BASIS     P2S    ABASIS      S 
                                         1400     1410     1200     1210     1080     1600     1650     1700   
                                           T        V       H0       H01     AOSYM     SMH    MOLCAS    OPER   

 PROGRAMS   *        TOTAL       INT
 CPU TIMES  *         0.68      0.56
 REAL TIME  *         1.18 SEC
 DISK USED  *       118.39 MB      
 GA USED    *         0.00 MB       (max)       0.00 MB       (current)
 **********************************************************************************************************************************

1PROGRAM * UHF-SCF       Authors: W. Meyer, H.-J. Werner


 NUMBER OF ELECTRONS:      11+   11-    SPACE SYMMETRY=1    SPIN SYMMETRY: Singlet 
 CONVERGENCE THRESHOLDS:    1.00E-10 (Density)    1.00E-11 (Energy)
 MAX. NUMBER OF ITERATIONS:      300
 INTERPOLATION TYPE:            DIIS
 INTERPOLATION STEPS:              2 (START)      1 (STEP)
 LEVEL SHIFTS:                  0.20 (ALPHA)   0.20 (BETA) 



 Orbital guess generated from atomic densities. Full valence occupancy:   16

 Molecular orbital dump at record        2200.2

 Initial alpha occupation  11
 Initial beta  occupation  11

 ITERATION    DDIFF          GRAD             ENERGY        2-EL.EN.            DIPOLE MOMENTS         DIIS
    1      0.000D+00      0.000D+00      -167.03119559    202.165442   -0.00000    0.88561    4.15123    0
    2      0.221D-01      0.629D-02      -167.30266300    196.852710   -0.00000    0.50654    2.22656    1
    3      0.656D-02      0.413D-02      -167.36567239    198.811926   -0.00000    0.57004    1.61894    2
    4      0.329D-02      0.144D-02      -167.39123217    199.017454   -0.00000    0.57951    0.64806    3
    5      0.621D-02      0.119D-02      -167.42123518    199.273583    0.00000    0.61705   -1.03474    4
    6      0.496D-02      0.649D-03      -167.43113449    199.335375    0.00000    0.65553   -2.23304    5
    7      0.168D-02      0.265D-03      -167.43210406    199.378391    0.00000    0.67033   -2.58141    6
    8      0.340D-03      0.589D-04      -167.43216780    199.377341    0.00000    0.67369   -2.61918    7
    9      0.169D-03      0.244D-04      -167.43219016    199.379637    0.00000    0.67447   -2.61858    8
   10      0.116D-03      0.152D-04      -167.43219703    199.376648    0.00000    0.67369   -2.61096    7
   11      0.882D-04      0.117D-04      -167.43219991    199.377746    0.00000    0.67442   -2.61906    8
   12      0.283D-04      0.365D-05      -167.43220049    199.377482    0.00000    0.67450   -2.61891    9
   13      0.246D-04      0.229D-05      -167.43220087    199.377529    0.00000    0.67483   -2.61881    7
   14      0.173D-04      0.131D-05      -167.43220103    199.377830    0.00000    0.67518   -2.61913    7
   15      0.728D-05      0.769D-06      -167.43220108    199.377757    0.00000    0.67539   -2.61947    8
   16      0.826D-05      0.608D-06      -167.43220112    199.377796    0.00000    0.67563   -2.61935    9
   17      0.123D-04      0.412D-06      -167.43220115    199.377716    0.00000    0.67598   -2.61927    9
   18      0.295D-05      0.126D-06      -167.43220115    199.377712    0.00000    0.67606   -2.61932    9
   19      0.245D-06      0.234D-07      -167.43220115    199.377711    0.00000    0.67607   -2.61931    9
   20      0.355D-07      0.541D-08      -167.43220115    199.377711    0.00000    0.67607   -2.61931    9
   21      0.149D-07      0.221D-08      -167.43220115    199.377711    0.00000    0.67607   -2.61931    8
   22      0.593D-08      0.864D-09      -167.43220115    199.377711    0.00000    0.67607   -2.61931    7
   23      0.225D-08      0.262D-09      -167.43220115    199.377711    0.00000    0.67607   -2.61931    6
   24      0.102D-08      0.139D-09      -167.43220115    199.377711    0.00000    0.67607   -2.61931    6
   25      0.638D-09      0.961D-10      -167.43220115    199.377711    0.00000    0.67607   -2.61931    7
   26      0.772D-09      0.672D-10      -167.43220115    199.377711    0.00000    0.67607   -2.61931    7
   27      0.127D-08      0.450D-10      -167.43220115    199.377711    0.00000    0.67607   -2.61931    8
   28      0.405D-09      0.154D-10      -167.43220115    199.377711    0.00000    0.67607   -2.61931    8
   29      0.880D-10      0.594D-11      -167.43220115    199.377711    0.00000    0.67607   -2.61931    9
   30      0.368D-10      0.281D-11      -167.43220115    199.377711    0.00000    0.67607   -2.61931    9
   31      0.145D-10      0.144D-11      -167.43220115    199.377711    0.00000    0.67607   -2.61931    9
   32      0.544D-11      0.597D-12      -167.43220115    199.377711    0.00000    0.67607   -2.61931    9
 
 Final alpha occupancy:  11
 Final beta  occupancy:  11

 !UHF STATE 1.1 Energy               -167.432201150218
 Nuclear energy                        39.71667111
 One-electron energy                 -306.83772786
 Two-electron energy                   99.68885559
 Virial quotient                       -1.00181613
 !UHF STATE 1.1 Dipole moment           0.00000000     0.67607019    -2.61930709
 Dipole moment /Debye                   0.00000000     1.71828646    -6.65717851

 Orbital energies for positive spin:

         1.1          2.1          3.1          4.1          5.1          6.1          7.1          8.1          9.1         10.1
    -20.794721   -15.572975   -11.302869    -1.433670    -1.214114    -0.787525    -0.671972    -0.590217    -0.473890    -0.473852

        11.1         12.1         13.1
     -0.414204    -0.200138     0.093429

 Orbital energies for negative spin:

         1.1          2.1          3.1          4.1          5.1          6.1          7.1          8.1          9.1         10.1
    -20.794721   -15.572975   -11.302869    -1.433670    -1.214114    -0.787525    -0.671972    -0.590217    -0.473890    -0.473852

        11.1         12.1         13.1
     -0.414204    -0.200138     0.093429

 HOMO     11.1    -0.414204 =     -11.2711eV
 LUMO     12.1    -0.200138 =      -5.4460eV
 LUMO-HOMO         0.214065 =       5.8250eV

 EXPECTATION VALUE OF S**2:            -0.00000000

 Natural orbitals saved to record    2200.2 (Orbital set 3)

 Orbital spaces for UNO-CAS (Min. occupation: 0.020  Max. occupation: 1.980):

 Closed:       11
 Active:        0


 **********************************************************************************************************************************
 DATASETS  * FILE   NREC   LENGTH (MB)   RECORD NAMES
              1      18       19.54       500      610      700      900      950      970     1000      129      960     1100   
                                          VAR    BASINP    GEOM    SYMINP    ZMAT    AOBASIS   BASIS     P2S    ABASIS      S 
                                         1400     1410     1200     1210     1080     1600     1650     1700   
                                           T        V       H0       H01     AOSYM     SMH    MOLCAS    OPER   

              2       4        0.87       700     1000      520     2200   
                                         GEOM     BASIS   MCVARS     UHF  

 PROGRAMS   *        TOTAL       UHF       INT
 CPU TIMES  *         1.71      1.03      0.56
 REAL TIME  *         2.24 SEC
 DISK USED  *       118.39 MB      
 SF USED    *         3.01 MB      
 GA USED    *         0.00 MB       (max)       0.00 MB       (current)
 **********************************************************************************************************************************

1PROGRAM * MULTI (Direct Multiconfiguration SCF)       Authors: P.J. Knowles, H.-J. Werner (1984)     S.T. Elbert (1988)


 Number of closed-shell orbitals:  10 (  10 )
 Number of active  orbitals:        2 (   2 )
 Number of external orbitals:      92 (  92 )

 State symmetry 1

 Number of electrons:     2    Spin symmetry=Singlet   Space symmetry=1
 Number of states:        1
 Number of CSFs:          3   (4 determinants, 4 intermediate states)

 Molecular orbitals read from record     2200.2  Type=UHF/NATURAL (state 1.1)

 EXTRA SYMMETRY OF MOS IN SYMMETRY 1:   1 1 1 1 1 1 2 1 1 2   1 1 1 1 2 1 1 1 2 1   1 1 2 1 2 1 2 1 2 1   1 1 2 1 1 1 2 1 1 2
                                        1 1 2 1 2 1 1 2 1 1   1 2 1 2 1 1 2 1 2 1   2 1 2 1 1 1 2 2 1 2   1 1 1 2 2 1 1 1 1 2
                                        1 2 1 2 1 2 1 1 2 1   1 2 1 2 1 1 1 2 1 1   2 1 1 1

 Wavefunction dump at record             2140.2

 Convergence thresholds  0.10E-01 (gradient)  0.10E-09 (energy)  0.10E-02 (step length)

 Number of orbital rotations:     1124   (    20 Core/Active    920 Core/Virtual   0 Active/Active    184 Active/Virtual)
 Total number of variables:       1128


 ITER. MIC  NCI  NEG     ENERGY(VAR)     ENERGY(PROJ)   ENERGY CHANGE     GRAD(0)  GRAD(ORB)   GRAD(CI)     STEP       TIME

   1   80    7    0    -167.59402622    -167.63681698   -0.04279076    0.22865079 0.00006569 0.00000000  0.20D+00      0.50
   2   32    8    0    -167.63720245    -167.63738656   -0.00018411    0.01863553 0.00000004 0.00000000  0.16D-01      0.93
   3   29    8    0    -167.63738738    -167.63738740   -0.00000002    0.00013956 0.00000000 0.00000000  0.23D-03      1.36
   4   28    5    0    -167.63738740    -167.63738740   -0.00000000    0.00000002 0.00000000 0.00000000  0.34D-07      1.66

 ** WVFN ****  CONVERGENCE REACHED, FINAL GRADIENT:  0.27D-10


 First order charge density matrix for state 1.1 saved on record  2140.2 (density set 1)

 Results for state 1.1
 =====================

 !MCSCF STATE 1.1 Energy             -167.637387398015
 Nuclear energy                        39.71667111
 Kinetic energy                       167.47941111
 One electron energy                 -307.31319845
 Two electron energy                   99.95913994
 Virial ratio                           2.00094326

 !MCSCF STATE 1.1 Dipole moment         0.00000000     0.62304301    -1.20339300
 Dipole moment /Debye                   0.00000000     1.58351365    -3.05851958


 EXTRA SYMMETRY OF MOS IN SYMMETRY 1:   1 1 1 1 1 1 1 2 1 2   1 1 1 2 1 1 1 1 2 1   1 1 2 1 2 1 2 1 1 2   1 1 2 1 1 1 2 1 1 2
                                        1 1 2 1 2 1 1 2 1 1   1 2 1 2 1 1 2 1 2 1   2 1 2 1 1 1 2 2 1 2   1 1 2 1 1 1 2 1 2 1
                                        1 2 1 2 1 1 2 1 1 2   1 2 1 1 2 1 1 2 1 1   2 1 1 1

 Natural orbital dump at molpro section  2140.2    (Orbital set 2)


 CI vector
 =========

 20      0.7460777
 02     -0.6658589

 TOTAL ENERGIES                      -167.63738740



 **********************************************************************************************************************************
 DATASETS  * FILE   NREC   LENGTH (MB)   RECORD NAMES
              1      19       29.87       500      610      700      900      950      970     1000      129      960     1100   
                                          VAR    BASINP    GEOM    SYMINP    ZMAT    AOBASIS   BASIS     P2S    ABASIS      S 
                                         1400     1410     1200     1210     1080     1600     1650     1700     1380   
                                           T        V       H0       H01     AOSYM     SMH    MOLCAS    OPER     JKOP   

              2       5        1.24       700     1000      520     2200     2140   
                                         GEOM     BASIS   MCVARS     UHF     MCSCF   

 PROGRAMS   *        TOTAL    CASSCF       UHF       INT
 CPU TIMES  *         3.69      1.98      1.03      0.56
 REAL TIME  *         4.60 SEC
 DISK USED  *       118.39 MB      
 SF USED    *        49.23 MB      
 GA USED    *         0.00 MB       (max)       0.00 MB       (current)
 **********************************************************************************************************************************
 SETTING DR             =        -0.10000000                                  

 DO RS                  =         3.29580000  ANGSTROM
 SETTING BASIS          =    CC-PVTZ

1PROGRAM * MULTI (Direct Multiconfiguration SCF)       Authors: P.J. Knowles, H.-J. Werner (1984)     S.T. Elbert (1988)


 Number of closed-shell orbitals:  10 (  10 )
 Number of active  orbitals:        2 (   2 )
 Number of external orbitals:      92 (  92 )

 State symmetry 1

 Number of electrons:     2    Spin symmetry=Singlet   Space symmetry=1
 Number of states:        1
 Number of CSFs:          3   (4 determinants, 4 intermediate states)

 Molecular orbitals read from record     2140.2  Type=MCSCF/NATURAL (state 1.1)

 EXTRA SYMMETRY OF MOS IN SYMMETRY 1:   1 1 1 1 1 1 1 2 1 2   1 1 1 2 1 1 1 1 2 1   1 1 2 1 2 1 2 1 1 2   1 1 2 1 1 1 2 1 1 2
                                        1 1 2 1 2 1 1 2 1 1   1 2 1 2 1 1 2 1 2 1   2 1 2 1 1 1 2 2 1 2   1 1 2 1 1 1 2 1 2 1
                                        1 2 1 2 1 1 2 1 1 2   1 2 1 1 2 1 1 2 1 1   2 1 1 1

 Wavefunction dump at record             2141.2

 Convergence thresholds  0.10E-01 (gradient)  0.10E-09 (energy)  0.10E-02 (step length)

 Number of orbital rotations:     1124   (    20 Core/Active    920 Core/Virtual   0 Active/Active    184 Active/Virtual)
 Total number of variables:       1128


 ITER. MIC  NCI  NEG     ENERGY(VAR)     ENERGY(PROJ)   ENERGY CHANGE     GRAD(0)  GRAD(ORB)   GRAD(CI)     STEP       TIME

   1   48    4    0    -167.63738740    -167.63738740    0.00000000    0.00000000 0.00000000 0.00000000  0.51D-11      0.29

 ** WVFN ****  CONVERGENCE REACHED, FINAL GRADIENT:  0.20D-11


 First order charge density matrix for state 1.1 saved on record  2141.2 (density set 1)

 Results for state 1.1
 =====================

 !MCSCF STATE 1.1 Energy             -167.637387398016
 Nuclear energy                        39.71667111
 Kinetic energy                       167.47941111
 One electron energy                 -307.31319845
 Two electron energy                   99.95913994
 Virial ratio                           2.00094326

 !MCSCF STATE 1.1 Dipole moment         0.00000000     0.62304301    -1.20339300
 Dipole moment /Debye                   0.00000000     1.58351365    -3.05851958


 Natural orbital dump at molpro section  2141.2    (Orbital set 2)


 CI vector
 =========

 20      0.7460777
 02     -0.6658589

 TOTAL ENERGIES                      -167.63738740



 **********************************************************************************************************************************
 DATASETS  * FILE   NREC   LENGTH (MB)   RECORD NAMES
              1      19       29.87       500      610      700      900      950      970     1000      129      960     1100   
                                          VAR    BASINP    GEOM    SYMINP    ZMAT    AOBASIS   BASIS     P2S    ABASIS      S 
                                         1400     1410     1200     1210     1080     1600     1650     1700     1380   
                                           T        V       H0       H01     AOSYM     SMH    MOLCAS    OPER     JKOP   

              2       6        1.65       700     1000      520     2200     2140     2141   
                                         GEOM     BASIS   MCVARS     UHF     MCSCF    MCSCF   

 PROGRAMS   *        TOTAL    CASSCF    CASSCF       UHF       INT
 CPU TIMES  *         4.28      0.58      1.98      1.03      0.56
 REAL TIME  *         5.30 SEC
 DISK USED  *       118.39 MB      
 SF USED    *        49.23 MB      
 GA USED    *         0.00 MB       (max)       0.00 MB       (current)
 **********************************************************************************************************************************

1PROGRAM * RS2 (Multireference RS Perturbation Theory)     Authors: H.-J. Werner (1993), P. Celani (1998)


 Level shift= 0.25

 Convergence thresholds:  THRVAR = 1.00D-10  THRDEN = 1.00D-10

 Number of optimized states:  1  Roots:   1
 Number of reference states:  1  Roots:   1

 Reference symmetry:                   1   Singlet 
 Number of electrons:                 22
 Maximum number of shells:             4
 Maximum number of spin couplings:     5

 Reference space:        3 conf        3 CSFs
 N elec internal:       45 conf       45 CSFs
 N-1 el internal:       79 conf      128 CSFs
 N-2 el internal:       99 conf      246 CSFs

 Number of electrons in valence space:                     16
 Maximum number of open shell orbitals in reference space:  2
 Maximum number of open shell orbitals in internal spaces:  6


 Number of core orbitals:           3 (   3 )
 Number of closed-shell orbitals:   7 (   7 )
 Number of active  orbitals:        2 (   2 )
 Number of external orbitals:      92 (  92 )

 Molecular orbitals read from record     2141.2  Type=MCSCF/NATURAL (state 1.1)

 Coulomb and exchange operators available. No transformation done.

 Number of p-space configurations:   3

 Reference wavefunction optimized for reference space (refopt=1)

 State     Reference Energy 
   1        -167.63738740

 Number of blocks in overlap matrix:     2   Smallest eigenvalue:  0.10D+01
 Number of N-2 electron functions:      78
 Number of N-1 electron functions:     128

 Number of internal configurations:                   45
 Number of singly external configurations:         11776
 Number of doubly external configurations:        330464
 Total number of contracted configurations:       342285
 Total number of uncontracted configurations:    1052617

 Weight factors for SA-density in H0:    1.000000

 FIMAX=  0.37D-01  FXMAX=  0.54D-11  DIAG=  F  T  NOREF=1  NOINT=0  IHPPD=2

 Nuclear energy:                      39.71667111
 Core energy:                       -154.87829123
 Zeroth-order valence energy:        -11.49809685
 Zeroth-order total energy:         -126.65971697
 First-order energy:                 -40.97767043

 Using uncontracted singles

 Diagonal Coupling coefficients finished.               Storage:    4567 words, CPU-Time:      0.00 seconds.
 Energy denominators for pairs finished in 0 passes.    Storage:   21047 words, CPU-time:      0.00 seconds.

 A level shift of 0.25 is applied.

  ITER. STATE  ROOT     SQ.NORM     CORR.ENERGY   TOTAL ENERGY   ENERGY CHANGE       DEN1      VAR(S)    VAR(P)      TIME
    1     1     1     1.02005928    -0.00501482  -167.64240222    -0.00501482    -0.49695502  0.20D-01  0.12D+00     0.05
    2     1     1     1.14186642    -0.53279382  -168.17018122    -0.52777900    -0.00034528  0.49D-04  0.26D-04     0.06
    3     1     1     1.14202646    -0.53298230  -168.17036970    -0.00018849    -0.00008650  0.41D-06  0.11D-06     0.07
    4     1     1     1.14207152    -0.53299434  -168.17038174    -0.00001204    -0.00000059  0.25D-08  0.15D-08     0.09
    5     1     1     1.14207247    -0.53299458  -168.17038198    -0.00000024    -0.00000049  0.51D-10  0.78D-11     0.10
    6     1     1     1.14207269    -0.53299464  -168.17038204    -0.00000006     0.00000000  0.51D-12  0.22D-12     0.12
    7     1     1     1.14207270    -0.53299464  -168.17038204    -0.00000000    -0.00000001  0.14D-13  0.20D-14     0.14
    8     1     1     1.14207270    -0.53299464  -168.17038204    -0.00000000    -0.00000000  0.26D-15  0.59D-16     0.15
    9     1     1     1.14207270    -0.53299464  -168.17038204     0.00000000    -0.00000000  0.79D-17  0.10D-17     0.16

 Energies without level shift correction:

    9     1     1     1.14207270    -0.49747646  -168.13486386

 Energy contributions for state 1.1:
 ===================================

            Energy contr.      SQ.Norm of FOWF
 Space I     -0.00006142          0.00008044
 Space S     -0.04391079          0.02064148
 Space P     -0.45350425          0.12135079


 =====================================
 Analysis of CPU times by interactions
 =====================================

       I      S      P

 I   0.0%
 S   6.2%   0.0%
 P   0.0%  50.0%  12.5%

 Initialization:  31.2%
 Other:            0.0%

 Total CPU:        0.2 seconds
 =====================================


 Initialize record     7000.1
 Now solve CP-CASPT2 equations

 A level shift of 0.25 is applied.

  ITER. STATE  ROOT     SQ.NORM     CORR.ENERGY   TOTAL ENERGY   ENERGY CHANGE       DEN1      VAR(S)    VAR(P)      TIME
    1     1     1     1.03457885    -0.00870613  -167.64609353    -0.00870613    -0.65234646  0.34D-01  0.17D+00     0.21
    2     1     1     1.20401345    -0.70417743  -168.34156483    -0.69547130    -0.00069579  0.74D-04  0.51D-04     0.22
    3     1     1     1.20436638    -0.70451280  -168.34190020    -0.00033537    -0.00016050  0.87D-06  0.17D-06     0.24
    4     1     1     1.20443058    -0.70453029  -168.34191769    -0.00001748    -0.00000141  0.46D-08  0.34D-08     0.25
    5     1     1     1.20443310    -0.70453093  -168.34191833    -0.00000064    -0.00000105  0.12D-09  0.15D-10     0.27
    6     1     1     1.20443342    -0.70453101  -168.34191841    -0.00000008    -0.00000000  0.11D-11  0.51D-12     0.28
    7     1     1     1.20443345    -0.70453102  -168.34191841    -0.00000001    -0.00000001  0.29D-13  0.45D-14     0.30
    8     1     1     1.20443345    -0.70453102  -168.34191841    -0.00000000    -0.00000000  0.54D-15  0.13D-15     0.31
    9     1     1     1.20443345    -0.70453102  -168.34191841    -0.00000000    -0.00000000  0.15D-16  0.24D-17     0.33
   10     1     1     1.20443345    -0.70453102  -168.34191841     0.00000000    -0.00000000  0.26D-18  0.28D-18     0.34

 Energies without level shift correction:

   10     1     1     1.20443345    -0.65342265  -168.29081005

 Energy contributions for state 1.1:
 ===================================

            Energy contr.      SQ.Norm of FOWF
 Space I     -0.00015847          0.00027478
 Space S     -0.06771434          0.03562543
 Space P     -0.58554984          0.16853324


 =====================================
 Analysis of CPU times by interactions
 =====================================

       I      S      P

 I   0.0%
 S   2.9%   0.0%
 P   0.0%  44.1%  14.7%

 Initialization:  58.8%
 Other:          -20.6%

 Total CPU:        0.3 seconds
 =====================================



 Reference coefficients greater than 0.0500000
 =============================================
 222222220           0.7460777
 222222202          -0.6658589

 Coefficients of doubly external configurations greater than 0.0500000
 =====================================================================

 PAIR    I     J   ->   K     L     NP  SYM  REF     COEFFICIENTS

  49   10.1  10.1     14.1  14.1     1   1    1   -0.08034049
  36    9.1   9.1     15.1  15.1     1   1    1   -0.07830525
  48   10.1   9.1     14.1  15.1    -1   1    1    0.06818338
  47   10.1   9.1     14.1  15.1     1   1    1   -0.05051162



 RESULTS FOR STATE 1.1
 =====================

 Coefficient of reference function:   C(0) = 1.00000000 (fixed)   1.00000000 (relaxed)

 Energy contributions of configuration classes

 CLASS          SQ.NORM        ECORR1        ECORR2
 +++++++++++++++++++++++++++++++++++++++++++++++++++
 Internals    0.00027478   -0.00008598    0.46353458
 Singles      0.03562543   -0.05422336   -0.09946417
 Pairs        0.16853324   -0.51420348   -0.89706505
 Total        1.20443345   -0.56851282   -0.53299464
 +++++++++++++++++++++++++++++++++++++++++++++++++++


 Reference energy                    -167.63738740
 Nuclear energy                        39.71667111
 Kinetic energy                       167.96570160
 One electron energy                 -307.01954227
 Two electron energy                   99.13248912
 Virial quotient                       -1.00121858
 Correlation energy                    -0.53299464
 !RSPT2 STATE 1.1 Energy             -168.170382038110

 Properties without orbital relaxation:

 !RSPT2 STATE 1.1 Dipole moment         0.00000000     0.62044326    -1.11764270
 Dipole moment /Debye                   0.00000000     1.57690617    -2.84057832


 **********************************************************************************************************************************

1PROGRAM * MULTI (Direct Multiconfiguration SCF)       Authors: P.J. Knowles, H.-J. Werner (1984)     S.T. Elbert (1988)


 Number of closed-shell orbitals:  10 (  10 )
 Number of active  orbitals:        2 (   2 )
 Number of external orbitals:      92 (  92 )

 State symmetry 1

 Number of electrons:     2    Spin symmetry=Singlet   Space symmetry=1
 Number of states:        1
 Number of CSFs:          3
 
 Maximum number of shells:             2
 Maximum number of spin couplings:     1

 Storage for configuration lists       6, coupling coefficients      5, address lists     28

 Molecular orbitals read from record     2141.2  Type=MCSCF/NATURAL (state 1.1)

 EXTRA SYMMETRY OF MOS IN SYMMETRY 1:   1 1 1 1 1 1 1 2 1 2   1 1 1 2 1 1 1 1 2 1   1 1 2 1 2 1 2 1 1 2   1 1 2 1 1 1 2 1 1 2
                                        1 1 2 1 2 1 1 2 1 1   1 2 1 2 1 1 2 1 2 1   2 1 2 1 1 1 2 2 1 2   1 1 2 1 1 1 2 1 2 1
                                        1 2 1 2 1 1 2 1 1 2   1 2 1 1 2 1 1 2 1 1   2 1 1 1

 Wavefunction dump at record             3140.4

 Convergence thresholds  0.10E-04 (gradient)  0.10E-09 (energy)  0.10E-02 (step length)

 Eigenvalues of redundancy matrix
   1-  1   -0.000000

 Number of orbital rotations:     1124   (    20 Core/Active    920 Core/Virtual   0 Active/Active    184 Active/Virtual)
 Total number of variables:       1127


 ITER. MIC  NCI  NEG     ENERGY(VAR)     ENERGY(PROJ)   ENERGY CHANGE     GRAD(0)  GRAD(ORB)   GRAD(CI)     STEP       TIME

   1   48    1    0    -167.63738740    -167.63738740    0.00000000    0.00000000 0.00000000 0.00000000  0.00D+00      0.19

 Warning: orbitals not optimized!

 Solving MCSCF z-vector equations for state  1.1, requested accuracy=      0.10D-05
 Convergence reached in  15 iterations ( 15 expansion vectors), accuracy=  0.63D-06

 Properties including orbital relaxation:

 !RSPT2 dipole moments (ED):            0.00000000     0.59103829    -0.91308009

 RSPT2 Gradient info saved on record         5200.1

 CPU-time for rhs:            0.48 sec
 CPU-time for cpmcscf:        0.38 sec
 CPU-time for densities:      0.00 sec


 **********************************************************************************************************************************
 DATASETS  * FILE   NREC   LENGTH (MB)   RECORD NAMES
              1      25       40.13       500      610      700      900      950      970     1000      129      960     1100   
                                          VAR    BASINP    GEOM    SYMINP    ZMAT    AOBASIS   BASIS     P2S    ABASIS      S 
                                         1400     1410     1200     1210     1080     1600     1650     1700     1380     7000   
                                           T        V       H0       H01     AOSYM     SMH    MOLCAS    OPER     JKOP   
                                         7001     5200     5210     7009     7005   
                                                 RS2GRAD  RS2GRAD    

              2       6        1.65       700     1000      520     2200     2140     2141   
                                         GEOM     BASIS   MCVARS     UHF     MCSCF    MCSCF   

 PROGRAMS   *        TOTAL       RS2    CASSCF    CASSCF       UHF       INT
 CPU TIMES  *         5.57      1.29      0.58      1.98      1.03      0.56
 REAL TIME  *         6.94 SEC
 DISK USED  *       118.39 MB      
 SF USED    *        74.85 MB      
 GA USED    *         0.00 MB       (max)       0.00 MB       (current)
 **********************************************************************************************************************************


 PROGRAM * OPT (Geometry optimization)     Authors: F. Eckert and H.-J. Werner


 BFGS update of hessian

 Running default procedure: CASSCF001  RS2

 Geometry optimization using default procedure for command RS2

 Inactive variables:    RS RX AX DX

 Active variables:      R1 A1 R3 A2 D1

 Geometry written to block  1 of record 700
1PROGRAM * ALASKA (Gradient of the energy)     Author: R. Lindh


 RSPT2 Gradient info restored from record    5200.1

 Number of core orbitals:           3 (   3 )
 Number of closed-shell orbitals:   7 (   7 )
 Number of active  orbitals:        2 (   2 )
 Number of external orbitals:      92 (  92 )

 Integral thresholds in T2TRAN:            1.0D-10 (PROD)

 Available memory for Transformation: 997615512 words
 Memory needed for incore algorithm:     980031 words
 Minimum memory needed:                  272415 words

 Memory used for transformation:           0.98 MW
 Available memory for gradients:         998.64 MW

 CPU for transformation:                   0.08 sec
 CPU for integrals and gradient:           1.41 sec
 Total CPU:                                1.50 sec

 Prescreening statistics:
 ========================

 Total number of shell quadruplets:        1.27D+03
 Number of shell quadruplets processed:    8.50D+02 ( 67.14%)

 RSPT2 GRADIENT FOR STATE 1.1

 Atom          dE/dx               dE/dy               dE/dz

   1         0.000000000         0.001635949         0.088545525
   2        -0.000000000        -0.001487787        -0.085927302
   3         0.000000000         0.002319575        -0.003697080
   4        -0.000000000        -0.002467736         0.001078857

 Nuclear force contribution to virial =        -0.175129313
 Reading points  1 to  1 from record 700.2,  wavefunction type=RS2             

 Making model hessian for Z-matrix coordinates
 No hessian update for point  1

 Entering Rational Function Geometry Optimization

 Optimization point 1

 Variable                      Last           Current        Next           Gradient       Hessian

 E(RS2) / Hartree            0.00000000  -168.17038204  -168.17348826
 R1 / ANGSTROM               0.00000000     1.14860000     1.18606424    -0.16240286     4.31295522
 A1 / DEGREE                 0.00000000    90.00000000    88.00000000     0.00000843     0.00000003
 R3 / ANGSTROM               0.00000000     0.96590000     0.96794889    -0.00508533     2.46006649
 A2 / DEGREE                 0.00000000   110.44360000   112.27677586    -0.00000348     0.00000003
 D1 / DEGREE                 0.00000000     0.00000000     0.00000000     0.00000000     0.00000000
 Convergence:                0.00000000  (line search)     0.08526064     0.08598360  (total)

 Geometry written to block  2 of record 700


 Recomputing integrals since geometry changed

1PROGRAM * SEWARD (Integral evaluation for generally contracted gaussian basis sets)     Author: Roland Lindh, 1990

 Geometry written to block  2 of record 700

 Orientation using atomic masses  
 Molecule type: Asymmetric top
 Rotational constants:       2.9568110      2.9702333    654.3139890 GHz  (calculated with average atomic masses)

 Point group  C1  



 ATOMIC COORDINATES

 NR  ATOM    CHARGE       X              Y              Z

   1  C       6.00    0.000000000   -0.052235450    1.749384010
   2  N       7.00    0.000000000    0.042480918    3.988718400
   3  O       8.00    0.000000000   -0.098104682   -4.478606440
   4  H       1.00    0.000000000    1.589378902   -5.184452940

 Bond lengths in Bohr (Angstrom)

 1-2  2.241336588  3-4  1.829158312
     ( 1.186064244)     ( 0.967948894)

 NUCLEAR CHARGE:                   22
 NUMBER OF PRIMITIVE AOS:         158
 NUMBER OF SYMMETRY AOS:          142
 NUMBER OF CONTRACTIONS:          104   ( 104A   )
 NUMBER OF CORE ORBITALS:           3   (   3A   )
 NUMBER OF VALENCE ORBITALS:       13   (  13A   )


 NUCLEAR REPULSION ENERGY   39.02660960

 EXTRA SYMMETRY OF AOS IN SYMMETRY 1:   1 1 1 1 2 1 1 2 1 1   2 1 1 1 2 2 1 1 1 2   2 1 1 2 1 1 2 2 1 1   1 1 1 1 2 1 1 2 1 1
                                        2 1 1 1 2 2 1 1 1 2   2 1 1 2 1 1 2 2 1 1   1 1 1 1 2 1 1 2 1 1   2 1 1 1 2 2 1 1 1 2
                                        2 1 1 2 1 1 2 2 1 1   1 1 1 2 1 1 2 1 1 1   2 2 1 1

 Eigenvalues of metric

         1 0.165E-02 0.302E-02 0.389E-02 0.769E-02 0.109E-01 0.130E-01 0.212E-01 0.212E-01


 Contracted 2-electron integrals neglected if value below      1.0D-14
 AO integral compression algorithm  1   Integral accuracy      1.0D-14

     38.797 MB (compressed) written to integral file ( 27.8%)

     Node minimum: 4.981 MB, node maximum: 6.554 MB


 NUMBER OF SORTED TWO-ELECTRON INTEGRALS:    2132130.     BUFFER LENGTH:  32768
 NUMBER OF SEGMENTS:   1  SEGMENT LENGTH:    2132130      RECORD LENGTH: 524288

 Memory used in sort:       2.69 MW

 SORT1 READ    17433392. AND WROTE      832948. INTEGRALS IN      3 RECORDS. CPU TIME:     0.16 SEC, REAL TIME:     0.17 SEC
 SORT2 READ     5719386. AND WROTE    14908530. INTEGRALS IN    154 RECORDS. CPU TIME:     0.04 SEC, REAL TIME:     0.04 SEC

 Node minimum:     2127450.  Node maximum:     2132130. integrals

 OPERATOR DM      FOR CENTER  0  COORDINATES:    0.000000    0.000000    0.000000
1PROGRAM * MULTI (Direct Multiconfiguration SCF)       Authors: P.J. Knowles, H.-J. Werner (1984)     S.T. Elbert (1988)



 Number of closed-shell orbitals:  10 (  10 )
 Number of active  orbitals:        2 (   2 )
 Number of external orbitals:      92 (  92 )

 State symmetry 1

 Number of electrons:     2    Spin symmetry=Singlet   Space symmetry=1
 Number of states:        1
 Number of CSFs:          3   (4 determinants, 4 intermediate states)

 Molecular orbitals read from record     2141.2  Type=MCSCF/NATURAL (state 1.1)

 EXTRA SYMMETRY OF MOS IN SYMMETRY 1:   1 1 1 1 1 1 1 2 1 2   1 1 1 2 1 1 1 1 2 1   1 1 2 1 2 1 2 1 1 2   1 1 2 1 1 1 2 1 1 2
                                        1 1 2 1 2 1 1 2 1 1   1 2 1 2 1 1 2 1 2 1   2 1 2 1 1 1 2 2 1 2   1 1 2 1 1 1 2 1 2 1
                                        1 2 1 2 1 1 2 1 1 2   1 2 1 1 2 1 1 2 1 1   2 1 1 1

 Wavefunction dump at record             2141.2

 Convergence thresholds  0.10E-04 (gradient)  0.10E-09 (energy)  0.10E-02 (step length)

 Number of orbital rotations:     1124   (    20 Core/Active    920 Core/Virtual   0 Active/Active    184 Active/Virtual)
 Total number of variables:       1128


 ITER. MIC  NCI  NEG     ENERGY(VAR)     ENERGY(PROJ)   ENERGY CHANGE     GRAD(0)  GRAD(ORB)   GRAD(CI)     STEP       TIME

   1   39    7    0    -167.62908847    -167.63082022   -0.00173175    0.07624760 0.00000041 0.00000000  0.30D-01      0.41
   2   46   13    0    -167.63083060    -167.63083093   -0.00000033    0.00077542 0.00000000 0.00000000  0.79D-03      0.84
   3   30   10    0    -167.63083093    -167.63083093   -0.00000000    0.00000034 0.00000000 0.00000000  0.90D-06      1.14

 ** WVFN ****  CONVERGENCE REACHED, FINAL GRADIENT:  0.45D-10


 First order charge density matrix for state 1.1 saved on record  2141.2 (density set 1)

 Results for state 1.1
 =====================

 !MCSCF STATE 1.1 Energy             -167.630830934393
 Nuclear energy                        39.02660960
 Kinetic energy                       167.28437761
 One electron energy                 -305.93899076
 Two electron energy                   99.28155022
 Virial ratio                           2.00207104

 !MCSCF STATE 1.1 Dipole moment         0.00000000     0.59215899    -1.21337193
 Dipole moment /Debye                   0.00000000     1.50501944    -3.08388183


 EXTRA SYMMETRY OF MOS IN SYMMETRY 1:   1 1 1 1 1 1 1 2 1 2   1 1 1 2 1 1 1 1 2 1   1 1 2 1 2 1 2 1 1 2   1 1 2 1 1 1 2 1 1 2
                                        1 1 2 1 2 1 1 2 1 1   1 2 1 2 1 1 2 1 2 1   2 1 1 2 1 1 2 2 1 2   1 1 1 2 1 1 2 1 2 1
                                        1 2 1 2 1 1 2 1 1 2   1 2 1 1 2 1 1 2 1 1   2 1 1 1

 Natural orbital dump at molpro section  2141.2    (Orbital set 2)


 CI vector
 =========

 20      0.7452318
 02     -0.6668055

 TOTAL ENERGIES                      -167.63083093



 **********************************************************************************************************************************
 DATASETS  * FILE   NREC   LENGTH (MB)   RECORD NAMES
              1      19       29.87       500      610      700      900      950      970     1000      129      960     1100   
                                          VAR    BASINP    GEOM    SYMINP    ZMAT    AOBASIS   BASIS     P2S    ABASIS      S 
                                         1400     1410     1200     1210     1080     1600     1650     1700     1380   
                                           T        V       H0       H01     AOSYM     SMH    MOLCAS    OPER     JKOP   

              2       6        1.65       700     1000      520     2200     2140     2141   
                                         GEOM     BASIS   MCVARS     UHF     MCSCF    MCSCF   

 PROGRAMS   *        TOTAL    CASSCF       RS2    CASSCF    CASSCF       UHF       INT
 CPU TIMES  *         9.92      1.98      1.29      0.58      1.98      1.03      0.56
 REAL TIME  *        12.87 SEC
 DISK USED  *       411.31 MB      
 SF USED    *        74.85 MB      
 GA USED    *         0.00 MB       (max)       0.00 MB       (current)
 **********************************************************************************************************************************

1PROGRAM * RS2 (Multireference RS Perturbation Theory)     Authors: H.-J. Werner (1993), P. Celani (1998)


 Level shift= 0.25

 Convergence thresholds:  THRVAR = 1.00D-10  THRDEN = 1.00D-10

 Number of optimized states:  1  Roots:   1
 Number of reference states:  1  Roots:   1

 Reference symmetry:                   1   Singlet 
 Number of electrons:                 22
 Maximum number of shells:             4
 Maximum number of spin couplings:     5

 Reference space:        3 conf        3 CSFs
 N elec internal:       45 conf       45 CSFs
 N-1 el internal:       79 conf      128 CSFs
 N-2 el internal:       99 conf      246 CSFs

 Number of electrons in valence space:                     16
 Maximum number of open shell orbitals in reference space:  2
 Maximum number of open shell orbitals in internal spaces:  6


 Number of core orbitals:           3 (   3 )
 Number of closed-shell orbitals:   7 (   7 )
 Number of active  orbitals:        2 (   2 )
 Number of external orbitals:      92 (  92 )

 Molecular orbitals read from record     2141.2  Type=MCSCF/NATURAL (state 1.1)

 Coulomb and exchange operators available. No transformation done.

 Number of p-space configurations:   3

 Reference wavefunction optimized for reference space (refopt=1)

 State     Reference Energy 
   1        -167.63083093

 Number of blocks in overlap matrix:     2   Smallest eigenvalue:  0.10D+01
 Number of N-2 electron functions:      78
 Number of N-1 electron functions:     128

 Number of internal configurations:                   45
 Number of singly external configurations:         11776
 Number of doubly external configurations:        330464
 Total number of contracted configurations:       342285
 Total number of uncontracted configurations:    1052617

 Weight factors for SA-density in H0:    1.000000

 FIMAX=  0.37D-01  FXMAX=  0.61D-12  DIAG=  F  T  NOREF=1  NOINT=0  IHPPD=2

 Nuclear energy:                      39.02660960
 Core energy:                       -154.52595792
 Zeroth-order valence energy:        -11.42998569
 Zeroth-order total energy:         -126.92933402
 First-order energy:                 -40.70149692

 Using uncontracted singles

 Diagonal Coupling coefficients finished.               Storage:    5482 words, CPU-Time:      0.00 seconds.
 Energy denominators for pairs finished in 0 passes.    Storage:   21962 words, CPU-time:      0.00 seconds.

 A level shift of 0.25 is applied.

  ITER. STATE  ROOT     SQ.NORM     CORR.ENERGY   TOTAL ENERGY   ENERGY CHANGE       DEN1      VAR(S)    VAR(P)      TIME
    1     1     1     1.02218091    -0.00554523  -167.63637616    -0.00554523    -0.50510339  0.22D-01  0.13D+00     0.05
    2     1     1     1.14908849    -0.54284411  -168.17367504    -0.53729888    -0.00043507  0.52D-04  0.28D-04     0.07
    3     1     1     1.14927604    -0.54304882  -168.17387976    -0.00020471    -0.00009593  0.46D-06  0.11D-06     0.08
    4     1     1     1.14932142    -0.54306100  -168.17389193    -0.00001218    -0.00000092  0.29D-08  0.17D-08     0.10
    5     1     1     1.14932242    -0.54306126  -168.17389219    -0.00000026    -0.00000057  0.64D-10  0.92D-11     0.11
    6     1     1     1.14932263    -0.54306131  -168.17389224    -0.00000005    -0.00000000  0.74D-12  0.28D-12     0.13
    7     1     1     1.14932264    -0.54306131  -168.17389225    -0.00000000    -0.00000001  0.21D-13  0.29D-14     0.14
    8     1     1     1.14932265    -0.54306131  -168.17389225     0.00000000    -0.00000000  0.44D-15  0.89D-16     0.16
    9     1     1     1.14932265    -0.54306131  -168.17389225     0.00000000    -0.00000000  0.13D-16  0.19D-17     0.17

 Energies without level shift correction:

    9     1     1     1.14932265    -0.50573065  -168.13656158

 Energy contributions for state 1.1:
 ===================================

            Energy contr.      SQ.Norm of FOWF
 Space I     -0.00006192          0.00008827
 Space S     -0.04681248          0.02290628
 Space P     -0.45885625          0.12632809


 =====================================
 Analysis of CPU times by interactions
 =====================================

       I      S      P

 I   0.0%
 S   5.9%   0.0%
 P   0.0%  47.1%  11.8%

 Initialization:  29.4%
 Other:            5.9%

 Total CPU:        0.2 seconds
 =====================================


 Initialize record     7000.1
 Now solve CP-CASPT2 equations

 A level shift of 0.25 is applied.

  ITER. STATE  ROOT     SQ.NORM     CORR.ENERGY   TOTAL ENERGY   ENERGY CHANGE       DEN1      VAR(S)    VAR(P)      TIME
    1     1     1     1.03881920    -0.00976672  -167.64059766    -0.00976672    -0.66894797  0.39D-01  0.18D+00     0.21
    2     1     1     1.21741464    -0.72432525  -168.35515619    -0.71455853    -0.00087189  0.81D-04  0.56D-04     0.23
    3     1     1     1.21782351    -0.72469360  -168.35552453    -0.00036834    -0.00017985  0.99D-06  0.17D-06     0.24
    4     1     1     1.21788800    -0.72471130  -168.35554223    -0.00001770    -0.00000207  0.56D-08  0.39D-08     0.26
    5     1     1     1.21789074    -0.72471200  -168.35554293    -0.00000070    -0.00000122  0.15D-09  0.18D-10     0.28
    6     1     1     1.21789103    -0.72471207  -168.35554300    -0.00000007    -0.00000000  0.17D-11  0.64D-12     0.29
    7     1     1     1.21789107    -0.72471208  -168.35554301    -0.00000001    -0.00000001  0.44D-13  0.68D-14     0.31
    8     1     1     1.21789107    -0.72471208  -168.35554301    -0.00000000    -0.00000000  0.93D-15  0.19D-15     0.33
    9     1     1     1.21789107    -0.72471208  -168.35554301    -0.00000000    -0.00000000  0.26D-16  0.37D-17     0.34
   10     1     1     1.21789107    -0.72471208  -168.35554301     0.00000000    -0.00000000  0.54D-18  0.13D-18     0.36

 Energies without level shift correction:

   10     1     1     1.21789107    -0.67023931  -168.30107024

 Energy contributions for state 1.1:
 ===================================

            Energy contr.      SQ.Norm of FOWF
 Space I     -0.00016800          0.00031098
 Space S     -0.07334790          0.04014131
 Space P     -0.59672341          0.17743878


 =====================================
 Analysis of CPU times by interactions
 =====================================

       I      S      P

 I   0.0%
 S   2.8%   0.0%
 P   0.0%  44.4%  19.4%

 Initialization:  55.6%
 Other:          -22.2%

 Total CPU:        0.4 seconds
 =====================================



 Reference coefficients greater than 0.0500000
 =============================================
 222222220           0.7452318
 222222202          -0.6668055

 Coefficients of doubly external configurations greater than 0.0500000
 =====================================================================

 PAIR    I     J   ->   K     L     NP  SYM  REF     COEFFICIENTS

  49   10.1  10.1     14.1  14.1     1   1    1   -0.08780070
  36    9.1   9.1     15.1  15.1     1   1    1   -0.08347759
  48   10.1   9.1     14.1  15.1    -1   1    1    0.07391321
  47   10.1   9.1     14.1  15.1     1   1    1   -0.05458194



 RESULTS FOR STATE 1.1
 =====================

 Coefficient of reference function:   C(0) = 1.00000000 (fixed)   1.00000000 (relaxed)

 Energy contributions of configuration classes

 CLASS          SQ.NORM        ECORR1        ECORR2
 +++++++++++++++++++++++++++++++++++++++++++++++++++
 Internals    0.00031098   -0.00008711    0.47005581
 Singles      0.04014131   -0.05826056   -0.10663573
 Pairs        0.17743878   -0.52204430   -0.90648139
 Total        1.21789107   -0.58039197   -0.54306131
 +++++++++++++++++++++++++++++++++++++++++++++++++++


 Reference energy                    -167.63083093
 Nuclear energy                        39.02660960
 Kinetic energy                       167.78434298
 One electron energy                 -305.65725208
 Two electron energy                   98.45675024
 Virial quotient                       -1.00232173
 Correlation energy                    -0.54306131
 !RSPT2 STATE 1.1 Energy             -168.173892246163

 Properties without orbital relaxation:

 !RSPT2 STATE 1.1 Dipole moment        -0.00000000     0.59250388    -1.11558796
 Dipole moment /Debye                  -0.00000000     1.50589601    -2.83535606


 **********************************************************************************************************************************

1PROGRAM * MULTI (Direct Multiconfiguration SCF)       Authors: P.J. Knowles, H.-J. Werner (1984)     S.T. Elbert (1988)


 Number of closed-shell orbitals:  10 (  10 )
 Number of active  orbitals:        2 (   2 )
 Number of external orbitals:      92 (  92 )

 State symmetry 1

 Number of electrons:     2    Spin symmetry=Singlet   Space symmetry=1
 Number of states:        1
 Number of CSFs:          3
 
 Maximum number of shells:             2
 Maximum number of spin couplings:     1

 Storage for configuration lists       6, coupling coefficients      5, address lists     28

 Molecular orbitals read from record     2141.2  Type=MCSCF/NATURAL (state 1.1)

 EXTRA SYMMETRY OF MOS IN SYMMETRY 1:   1 1 1 1 1 1 1 2 1 2   1 1 1 2 1 1 1 1 2 1   1 1 2 1 2 1 2 1 1 2   1 1 2 1 1 1 2 1 1 2
                                        1 1 2 1 2 1 1 2 1 1   1 2 1 2 1 1 2 1 2 1   2 1 1 2 1 1 2 2 1 2   1 1 1 2 1 1 2 1 2 1
                                        1 2 1 2 1 1 2 1 1 2   1 2 1 1 2 1 1 2 1 1   2 1 1 1

 Wavefunction dump at record             3140.4

 Convergence thresholds  0.10E-04 (gradient)  0.10E-09 (energy)  0.10E-02 (step length)

 Eigenvalues of redundancy matrix
   1-  1   -0.000000

 Number of orbital rotations:     1124   (    20 Core/Active    920 Core/Virtual   0 Active/Active    184 Active/Virtual)
 Total number of variables:       1127


 ITER. MIC  NCI  NEG     ENERGY(VAR)     ENERGY(PROJ)   ENERGY CHANGE     GRAD(0)  GRAD(ORB)   GRAD(CI)     STEP       TIME

   1   30    1    0    -167.63083093    -167.63083093    0.00000000    0.00000000 0.00000000 0.00000000  0.00D+00      0.19

 Warning: orbitals not optimized!

 Solving MCSCF z-vector equations for state  1.1, requested accuracy=      0.10D-05
 Convergence reached in  16 iterations ( 16 expansion vectors), accuracy=  0.34D-06

 Properties including orbital relaxation:

 !RSPT2 dipole moments (ED):           -0.00000000     0.56920780    -0.86762892

 RSPT2 Gradient info saved on record         5200.1

 CPU-time for rhs:            0.56 sec
 CPU-time for cpmcscf:        0.46 sec
 CPU-time for densities:      0.00 sec


 **********************************************************************************************************************************
 DATASETS  * FILE   NREC   LENGTH (MB)   RECORD NAMES
              1      25       40.13       500      610      700      900      950      970     1000      129      960     1100   
                                          VAR    BASINP    GEOM    SYMINP    ZMAT    AOBASIS   BASIS     P2S    ABASIS      S 
                                         1400     1410     1200     1210     1080     1600     1650     1700     1380     7000   
                                           T        V       H0       H01     AOSYM     SMH    MOLCAS    OPER     JKOP   
                                         7001     5200     5210     7009     7005   
                                                 RS2GRAD  RS2GRAD    

              2       6        1.65       700     1000      520     2200     2140     2141   
                                         GEOM     BASIS   MCVARS     UHF     MCSCF    MCSCF   

 PROGRAMS   *        TOTAL       RS2       RS2    CASSCF    CASSCF       UHF       INT
 CPU TIMES  *        11.36      1.45      1.29      0.58      1.98      1.03      0.56
 REAL TIME  *        14.65 SEC
 DISK USED  *       411.31 MB      
 SF USED    *        74.85 MB      
 GA USED    *         0.00 MB       (max)       0.00 MB       (current)
 **********************************************************************************************************************************

 ITER.   ENERGY(OLD)    ENERGY(NEW)      DE          GRADMAX     GRADNORM    GRADRMS     STEPMAX     STEPLEN     STEPRMS   CPU-time
   1  -168.17038204  -168.17389225    -0.00351021  0.08593989  0.08598360  0.03845304  0.07079716  0.08526064  0.01705213      5.79

 Current geometry (xyz format, in Angstrom)

    4
 RS2/CC-PVTZ  ENERGY=-168.17389225
 C          0.0000000000       -0.0276418097        0.9257341514
 N          0.0000000000        0.0224799336        2.1107388782
 O          0.0000000000       -0.0519147622       -2.3699764645
 H          0.0000000000        0.8410630944       -2.7434943470

 **********************************************************************************************************************************

 Current variables
 R1=                  1.18606424 ANGSTROM
 A1=                 88.00000000 DEGREE
 R3=                  0.96794889 ANGSTROM
 A2=                112.27677586 DEGREE
 D1=                  0.00000000 DEGREE

 **********************************************************************************************************************************
1PROGRAM * ALASKA (Gradient of the energy)     Author: R. Lindh


 RSPT2 Gradient info restored from record    5200.1

 Number of core orbitals:           3 (   3 )
 Number of closed-shell orbitals:   7 (   7 )
 Number of active  orbitals:        2 (   2 )
 Number of external orbitals:      92 (  92 )

 Integral thresholds in T2TRAN:            1.0D-10 (PROD)

 Available memory for Transformation: 997615512 words
 Memory needed for incore algorithm:     980031 words
 Minimum memory needed:                  272415 words

 Memory used for transformation:           0.98 MW
 Available memory for gradients:         998.64 MW

 CPU for transformation:                   0.09 sec
 CPU for integrals and gradient:           1.39 sec
 Total CPU:                                1.49 sec

 Prescreening statistics:
 ========================

 Total number of shell quadruplets:        1.21D+03
 Number of shell quadruplets processed:    6.82D+02 ( 56.36%)

 RSPT2 GRADIENT FOR STATE 1.1

 Atom          dE/dx               dE/dy               dE/dz

   1        -0.000000000         0.000920162         0.018488970
   2         0.000000000        -0.000841264        -0.016021355
   3         0.000000000         0.000474963        -0.002706281
   4        -0.000000000        -0.000553862         0.000238665

 Nuclear force contribution to virial =        -0.021688037
 Reading points  1 to  2 from record 700.2,  wavefunction type=RS2             

 Making model hessian for Z-matrix coordinates
 BFGS update of hessian using  1 points

 Entering Rational Function Geometry Optimization

 step scaled: scalefactor =     0.4983

 Optimization point 2

 Variable                      Last           Current        Next           Gradient       Hessian

 E(RS2) / Hartree         -168.17038204  -168.17389225  -168.17408818
 R1 / ANGSTROM               1.14860000     1.18606424     1.19013812    -0.03031611     3.52024481
 A1 / DEGREE                90.00000000    88.00000000    86.00000000     0.00000639     0.00000003
 R3 / ANGSTROM               0.96590000     0.96794889     0.96821927    -0.00113962     2.44497255
 A2 / DEGREE               110.44360000   112.27677586   110.73362595    -0.00000021     0.00000003
 D1 / DEGREE                 0.00000000     0.00000000     0.00000000     0.00000000     0.00000000
 Convergence:                0.00000000  (line search)     0.04475921     0.01605811  (total)

 Geometry written to block  3 of record 700


 Recomputing integrals since geometry changed

1PROGRAM * SEWARD (Integral evaluation for generally contracted gaussian basis sets)     Author: Roland Lindh, 1990

 Geometry written to block  3 of record 700

 Orientation using atomic masses  
 Molecule type: Asymmetric top
 Rotational constants:       2.9564516      2.9707523    614.1610704 GHz  (calculated with average atomic masses)

 Point group  C1  



 ATOMIC COORDINATES

 NR  ATOM    CHARGE       X              Y              Z

   1  C       6.00    0.000000000   -0.090934736    1.746726949
   2  N       7.00    0.000000000    0.066240405    3.990263176
   3  O       8.00    0.000000000   -0.091740854   -4.481432361
   4  H       1.00    0.000000000    1.619348619   -5.129400259

 Bond lengths in Bohr (Angstrom)

 1-2  2.249035088  3-4  1.829669255
     ( 1.190138115)     ( 0.968219273)

 NUCLEAR CHARGE:                   22
 NUMBER OF PRIMITIVE AOS:         158
 NUMBER OF SYMMETRY AOS:          142
 NUMBER OF CONTRACTIONS:          104   ( 104A   )
 NUMBER OF CORE ORBITALS:           3   (   3A   )
 NUMBER OF VALENCE ORBITALS:       13   (  13A   )


 NUCLEAR REPULSION ENERGY   38.96654156

 EXTRA SYMMETRY OF AOS IN SYMMETRY 1:   1 1 1 1 2 1 1 2 1 1   2 1 1 1 2 2 1 1 1 2   2 1 1 2 1 1 2 2 1 1   1 1 1 1 2 1 1 2 1 1
                                        2 1 1 1 2 2 1 1 1 2   2 1 1 2 1 1 2 2 1 1   1 1 1 1 2 1 1 2 1 1   2 1 1 1 2 2 1 1 1 2
                                        2 1 1 2 1 1 2 2 1 1   1 1 1 2 1 1 2 1 1 1   2 2 1 1

 Eigenvalues of metric

         1 0.166E-02 0.304E-02 0.389E-02 0.770E-02 0.109E-01 0.131E-01 0.214E-01 0.214E-01


 Contracted 2-electron integrals neglected if value below      1.0D-14
 AO integral compression algorithm  1   Integral accuracy      1.0D-14

     38.535 MB (compressed) written to integral file ( 27.6%)

     Node minimum: 4.981 MB, node maximum: 6.291 MB


 NUMBER OF SORTED TWO-ELECTRON INTEGRALS:    2132130.     BUFFER LENGTH:  32768
 NUMBER OF SEGMENTS:   1  SEGMENT LENGTH:    2132130      RECORD LENGTH: 524288

 Memory used in sort:       2.69 MW

 SORT1 READ    17433392. AND WROTE      825015. INTEGRALS IN      3 RECORDS. CPU TIME:     0.16 SEC, REAL TIME:     0.17 SEC
 SORT2 READ     5666790. AND WROTE    14908530. INTEGRALS IN    133 RECORDS. CPU TIME:     0.04 SEC, REAL TIME:     0.05 SEC

 Node minimum:     2127450.  Node maximum:     2132130. integrals

 OPERATOR DM      FOR CENTER  0  COORDINATES:    0.000000    0.000000    0.000000
1PROGRAM * MULTI (Direct Multiconfiguration SCF)       Authors: P.J. Knowles, H.-J. Werner (1984)     S.T. Elbert (1988)



 Number of closed-shell orbitals:  10 (  10 )
 Number of active  orbitals:        2 (   2 )
 Number of external orbitals:      92 (  92 )

 State symmetry 1

 Number of electrons:     2    Spin symmetry=Singlet   Space symmetry=1
 Number of states:        1
 Number of CSFs:          3   (4 determinants, 4 intermediate states)

 Molecular orbitals read from record     2141.2  Type=MCSCF/NATURAL (state 1.1)

 EXTRA SYMMETRY OF MOS IN SYMMETRY 1:   1 1 1 1 1 1 1 2 1 2   1 1 1 2 1 1 1 1 2 1   1 1 2 1 2 1 2 1 1 2   1 1 2 1 1 1 2 1 1 2
                                        1 1 2 1 2 1 1 2 1 1   1 2 1 2 1 1 2 1 2 1   2 1 1 2 1 1 2 2 1 2   1 1 1 2 1 1 2 1 2 1
                                        1 2 1 2 1 1 2 1 1 2   1 2 1 1 2 1 1 2 1 1   2 1 1 1

 Wavefunction dump at record             2141.2

 Convergence thresholds  0.10E-04 (gradient)  0.10E-09 (energy)  0.10E-02 (step length)

 Number of orbital rotations:     1124   (    20 Core/Active    920 Core/Virtual   0 Active/Active    184 Active/Virtual)
 Total number of variables:       1128


 ITER. MIC  NCI  NEG     ENERGY(VAR)     ENERGY(PROJ)   ENERGY CHANGE     GRAD(0)  GRAD(ORB)   GRAD(CI)     STEP       TIME

   1   35    7    0    -167.62908443    -167.62976786   -0.00068343    0.04163989 0.00000066 0.00000000  0.24D-01      0.39
   2   32   13    0    -167.62976850    -167.62976853   -0.00000003    0.00030331 0.00000000 0.00000000  0.15D-03      0.81
   3   32   10    0    -167.62976853    -167.62976853    0.00000000    0.00000002 0.00000000 0.00000000  0.41D-07      1.10

 ** WVFN ****  CONVERGENCE REACHED, FINAL GRADIENT:  0.25D-11


 First order charge density matrix for state 1.1 saved on record  2141.2 (density set 1)

 Results for state 1.1
 =====================

 !MCSCF STATE 1.1 Energy             -167.629768529162
 Nuclear energy                        38.96654156
 Kinetic energy                       167.26461025
 One electron energy                 -305.81447138
 Two electron energy                   99.21816130
 Virial ratio                           2.00218312

 !MCSCF STATE 1.1 Dipole moment         0.00000000     0.57708925    -1.18714743
 Dipole moment /Debye                   0.00000000     1.46671850    -3.01723016


 EXTRA SYMMETRY OF MOS IN SYMMETRY 1:   1 1 1 1 1 1 1 2 1 2   1 1 1 2 1 1 1 1 2 1   1 1 2 1 2 1 2 1 1 2   1 1 2 1 1 1 2 1 1 2
                                        1 1 2 1 2 1 1 2 1 1   1 2 1 2 1 1 2 1 2 1   2 1 1 2 1 1 2 2 1 2   1 1 1 2 1 1 2 1 2 1
                                        2 1 1 2 1 1 2 1 1 2   1 2 1 1 2 1 1 2 1 1   2 1 1 1

 Natural orbital dump at molpro section  2141.2    (Orbital set 2)


 CI vector
 =========

 20      0.7456168
 02     -0.6663750

 TOTAL ENERGIES                      -167.62976853



 **********************************************************************************************************************************
 DATASETS  * FILE   NREC   LENGTH (MB)   RECORD NAMES
              1      19       29.87       500      610      700      900      950      970     1000      129      960     1100   
                                          VAR    BASINP    GEOM    SYMINP    ZMAT    AOBASIS   BASIS     P2S    ABASIS      S 
                                         1400     1410     1200     1210     1080     1600     1650     1700     1380   
                                           T        V       H0       H01     AOSYM     SMH    MOLCAS    OPER     JKOP   

              2       6        1.65       700     1000      520     2200     2140     2141   
                                         GEOM     BASIS   MCVARS     UHF     MCSCF    MCSCF   

 PROGRAMS   *        TOTAL    CASSCF       RS2    CASSCF    CASSCF       UHF       INT
 CPU TIMES  *        16.12      1.94      1.29      0.58      1.98      1.03      0.56
 REAL TIME  *        19.75 SEC
 DISK USED  *       411.31 MB      
 SF USED    *        74.85 MB      
 GA USED    *         0.00 MB       (max)       0.00 MB       (current)
 **********************************************************************************************************************************

1PROGRAM * RS2 (Multireference RS Perturbation Theory)     Authors: H.-J. Werner (1993), P. Celani (1998)


 Level shift= 0.25

 Convergence thresholds:  THRVAR = 1.00D-10  THRDEN = 1.00D-10

 Number of optimized states:  1  Roots:   1
 Number of reference states:  1  Roots:   1

 Reference symmetry:                   1   Singlet 
 Number of electrons:                 22
 Maximum number of shells:             4
 Maximum number of spin couplings:     5

 Reference space:        3 conf        3 CSFs
 N elec internal:       45 conf       45 CSFs
 N-1 el internal:       79 conf      128 CSFs
 N-2 el internal:       99 conf      246 CSFs

 Number of electrons in valence space:                     16
 Maximum number of open shell orbitals in reference space:  2
 Maximum number of open shell orbitals in internal spaces:  6


 Number of core orbitals:           3 (   3 )
 Number of closed-shell orbitals:   7 (   7 )
 Number of active  orbitals:        2 (   2 )
 Number of external orbitals:      92 (  92 )

 Molecular orbitals read from record     2141.2  Type=MCSCF/NATURAL (state 1.1)

 Coulomb and exchange operators available. No transformation done.

 Number of p-space configurations:   3

 Reference wavefunction optimized for reference space (refopt=1)

 State     Reference Energy 
   1        -167.62976853

 Number of blocks in overlap matrix:     2   Smallest eigenvalue:  0.10D+01
 Number of N-2 electron functions:      78
 Number of N-1 electron functions:     128

 Number of internal configurations:                   45
 Number of singly external configurations:         11776
 Number of doubly external configurations:        330464
 Total number of contracted configurations:       342285
 Total number of uncontracted configurations:    1052617

 Weight factors for SA-density in H0:    1.000000

 FIMAX=  0.37D-01  FXMAX=  0.72D-12  DIAG=  F  T  NOREF=1  NOINT=0  IHPPD=2

 Nuclear energy:                      38.96654156
 Core energy:                       -154.49315738
 Zeroth-order valence energy:        -11.42583349
 Zeroth-order total energy:         -126.95244931
 First-order energy:                 -40.67731922

 Using uncontracted singles

 Diagonal Coupling coefficients finished.               Storage:    5482 words, CPU-Time:      0.00 seconds.
 Energy denominators for pairs finished in 0 passes.    Storage:   21962 words, CPU-time:      0.00 seconds.

 A level shift of 0.25 is applied.

  ITER. STATE  ROOT     SQ.NORM     CORR.ENERGY   TOTAL ENERGY   ENERGY CHANGE       DEN1      VAR(S)    VAR(P)      TIME
    1     1     1     1.02244087    -0.00561022  -167.63537875    -0.00561022    -0.50604692  0.22D-01  0.13D+00     0.06
    2     1     1     1.14993337    -0.54401454  -168.17378307    -0.53840433    -0.00044804  0.53D-04  0.29D-04     0.07
    3     1     1     1.15012506    -0.54422172  -168.17399025    -0.00020717    -0.00009732  0.47D-06  0.11D-06     0.09
    4     1     1     1.15017052    -0.54423392  -168.17400245    -0.00001221    -0.00000097  0.30D-08  0.17D-08     0.11
    5     1     1     1.15017154    -0.54423419  -168.17400272    -0.00000026    -0.00000058  0.66D-10  0.96D-11     0.12
    6     1     1     1.15017175    -0.54423424  -168.17400277    -0.00000005    -0.00000000  0.80D-12  0.29D-12     0.14
    7     1     1     1.15017176    -0.54423424  -168.17400277    -0.00000000    -0.00000001  0.22D-13  0.32D-14     0.16
    8     1     1     1.15017176    -0.54423424  -168.17400277     0.00000000    -0.00000000  0.48D-15  0.96D-16     0.17
    9     1     1     1.15017176    -0.54423424  -168.17400277     0.00000000    -0.00000000  0.14D-16  0.19D-17     0.19

 Energies without level shift correction:

    9     1     1     1.15017176    -0.50669130  -168.13645983

 Energy contributions for state 1.1:
 ===================================

            Energy contr.      SQ.Norm of FOWF
 Space I     -0.00006369          0.00009050
 Space S     -0.04717431          0.02318747
 Space P     -0.45945330          0.12689379


 =====================================
 Analysis of CPU times by interactions
 =====================================

       I      S      P

 I   0.0%
 S   5.3%   0.0%
 P   0.0%  42.1%  21.1%

 Initialization:  26.3%
 Other:            5.3%

 Total CPU:        0.2 seconds
 =====================================


 Initialize record     7000.1
 Now solve CP-CASPT2 equations

 A level shift of 0.25 is applied.

  ITER. STATE  ROOT     SQ.NORM     CORR.ENERGY   TOTAL ENERGY   ENERGY CHANGE       DEN1      VAR(S)    VAR(P)      TIME
    1     1     1     1.03933883    -0.00989840  -167.63966693    -0.00989840    -0.67087931  0.39D-01  0.18D+00     0.23
    2     1     1     1.21899599    -0.72668375  -168.35645228    -0.71678535    -0.00089752  0.82D-04  0.56D-04     0.25
    3     1     1     1.21941314    -0.72705700  -168.35682553    -0.00037325    -0.00018262  0.10D-05  0.17D-06     0.27
    4     1     1     1.21947775    -0.72707475  -168.35684328    -0.00001775    -0.00000217  0.59D-08  0.39D-08     0.28
    5     1     1     1.21948052    -0.72707547  -168.35684399    -0.00000071    -0.00000124  0.15D-09  0.19D-10     0.30
    6     1     1     1.21948082    -0.72707554  -168.35684407    -0.00000007    -0.00000001  0.18D-11  0.66D-12     0.31
    7     1     1     1.21948085    -0.72707554  -168.35684407    -0.00000001    -0.00000001  0.48D-13  0.74D-14     0.33
    8     1     1     1.21948085    -0.72707554  -168.35684407    -0.00000000     0.00000000  0.10D-14  0.21D-15     0.34
    9     1     1     1.21948085    -0.72707554  -168.35684407    -0.00000000    -0.00000000  0.28D-16  0.41D-17     0.36

 Energies without level shift correction:

    9     1     1     1.21948085    -0.67220533  -168.30197386

 Energy contributions for state 1.1:
 ===================================

            Energy contr.      SQ.Norm of FOWF
 Space I     -0.00017246          0.00031798
 Space S     -0.07404866          0.04070086
 Space P     -0.59798421          0.17846201


 =====================================
 Analysis of CPU times by interactions
 =====================================

       I      S      P

 I   0.0%
 S   2.8%   5.6%
 P   0.0%  38.9%  22.2%

 Initialization:  61.1%
 Other:          -30.6%

 Total CPU:        0.4 seconds
 =====================================



 Reference coefficients greater than 0.0500000
 =============================================
 222222220           0.7456168
 222222202          -0.6663750

 Coefficients of doubly external configurations greater than 0.0500000
 =====================================================================

 PAIR    I     J   ->   K     L     NP  SYM  REF     COEFFICIENTS

  49   10.1  10.1     14.1  14.1     1   1    1   -0.08862002
  36    9.1   9.1     15.1  15.1     1   1    1   -0.08251502
  48   10.1   9.1     14.1  15.1    -1   1    1    0.07385516
  47   10.1   9.1     14.1  15.1     1   1    1   -0.05452406



 RESULTS FOR STATE 1.1
 =====================

 Coefficient of reference function:   C(0) = 1.00000000 (fixed)   1.00000000 (relaxed)

 Energy contributions of configuration classes

 CLASS          SQ.NORM        ECORR1        ECORR2
 +++++++++++++++++++++++++++++++++++++++++++++++++++
 Internals    0.00031798   -0.00008963    0.47080915
 Singles      0.04070086   -0.05876330   -0.10752789
 Pairs        0.17846201   -0.52292424   -0.90751551
 Total        1.21948085   -0.58177718   -0.54423424
 +++++++++++++++++++++++++++++++++++++++++++++++++++


 Reference energy                    -167.62976853
 Nuclear energy                        38.96654156
 Kinetic energy                       167.76612186
 One electron energy                 -305.53416110
 Two electron energy                   98.39361678
 Virial quotient                       -1.00243125
 Correlation energy                    -0.54423424
 !RSPT2 STATE 1.1 Energy             -168.174002769707

 Properties without orbital relaxation:

 !RSPT2 STATE 1.1 Dipole moment         0.00000000     0.58018420    -1.08834898
 Dipole moment /Debye                   0.00000000     1.47458457    -2.76612600


 **********************************************************************************************************************************

1PROGRAM * MULTI (Direct Multiconfiguration SCF)       Authors: P.J. Knowles, H.-J. Werner (1984)     S.T. Elbert (1988)


 Number of closed-shell orbitals:  10 (  10 )
 Number of active  orbitals:        2 (   2 )
 Number of external orbitals:      92 (  92 )

 State symmetry 1

 Number of electrons:     2    Spin symmetry=Singlet   Space symmetry=1
 Number of states:        1
 Number of CSFs:          3
 
 Maximum number of shells:             2
 Maximum number of spin couplings:     1

 Storage for configuration lists       6, coupling coefficients      5, address lists     28

 Molecular orbitals read from record     2141.2  Type=MCSCF/NATURAL (state 1.1)

 EXTRA SYMMETRY OF MOS IN SYMMETRY 1:   1 1 1 1 1 1 1 2 1 2   1 1 1 2 1 1 1 1 2 1   1 1 2 1 2 1 2 1 1 2   1 1 2 1 1 1 2 1 1 2
                                        1 1 2 1 2 1 1 2 1 1   1 2 1 2 1 1 2 1 2 1   2 1 1 2 1 1 2 2 1 2   1 1 1 2 1 1 2 1 2 1
                                        2 1 1 2 1 1 2 1 1 2   1 2 1 1 2 1 1 2 1 1   2 1 1 1

 Wavefunction dump at record             3140.4

 Convergence thresholds  0.10E-04 (gradient)  0.10E-09 (energy)  0.10E-02 (step length)

 Eigenvalues of redundancy matrix
   1-  1   -0.000000

 Number of orbital rotations:     1124   (    20 Core/Active    920 Core/Virtual   0 Active/Active    184 Active/Virtual)
 Total number of variables:       1127


 ITER. MIC  NCI  NEG     ENERGY(VAR)     ENERGY(PROJ)   ENERGY CHANGE     GRAD(0)  GRAD(ORB)   GRAD(CI)     STEP       TIME

   1   32    1    0    -167.62976853    -167.62976853    0.00000000    0.00000000 0.00000000 0.00000000  0.00D+00      0.18

 Warning: orbitals not optimized!

 Solving MCSCF z-vector equations for state  1.1, requested accuracy=      0.10D-05
 Convergence reached in  16 iterations ( 16 expansion vectors), accuracy=  0.36D-06

 Properties including orbital relaxation:

 !RSPT2 dipole moments (ED):            0.00000000     0.56310001    -0.83665942

 RSPT2 Gradient info saved on record         5200.1

 CPU-time for rhs:            0.57 sec
 CPU-time for cpmcscf:        0.44 sec
 CPU-time for densities:      0.00 sec


 **********************************************************************************************************************************
 DATASETS  * FILE   NREC   LENGTH (MB)   RECORD NAMES
              1      25       40.13       500      610      700      900      950      970     1000      129      960     1100   
                                          VAR    BASINP    GEOM    SYMINP    ZMAT    AOBASIS   BASIS     P2S    ABASIS      S 
                                         1400     1410     1200     1210     1080     1600     1650     1700     1380     7000   
                                           T        V       H0       H01     AOSYM     SMH    MOLCAS    OPER     JKOP   
                                         7001     5200     5210     7009     7005   
                                                 RS2GRAD  RS2GRAD    

              2       6        1.65       700     1000      520     2200     2140     2141   
                                         GEOM     BASIS   MCVARS     UHF     MCSCF    MCSCF   

 PROGRAMS   *        TOTAL       RS2       RS2    CASSCF    CASSCF       UHF       INT
 CPU TIMES  *        17.55      1.43      1.29      0.58      1.98      1.03      0.56
 REAL TIME  *        21.47 SEC
 DISK USED  *       411.31 MB      
 SF USED    *        74.85 MB      
 GA USED    *         0.00 MB       (max)       0.00 MB       (current)
[...]

 ** WVFN ****  CONVERGENCE REACHED, FINAL GRADIENT:  0.33D-10


 First order charge density matrix for state 1.1 saved on record  2141.2 (density set 1)

 Results for state 1.1
 =====================

 !MCSCF STATE 1.1 Energy             -167.806462205813
 Nuclear energy                        57.96840063
 Kinetic energy                       167.50252490
 One electron energy                 -343.32280637
 Two electron energy                  117.54794353
 Virial ratio                           2.00181452

 !MCSCF STATE 1.1 Dipole moment         0.00000000     0.65660682    -1.49379788
 Dipole moment /Debye                   0.00000000     1.66881877    -3.79660682


 Natural orbital dump at molpro section  2141.2    (Orbital set 2)


 CI vector
 =========

 20      0.9962420
 02     -0.0866132

 TOTAL ENERGIES                      -167.80646221



 **********************************************************************************************************************************
 DATASETS  * FILE   NREC   LENGTH (MB)   RECORD NAMES
              1      19       29.87       500      610      700      900      950      970     1000      129      960     1100   
                                          VAR    BASINP    GEOM    SYMINP    ZMAT    AOBASIS   BASIS     P2S    ABASIS      S 
                                         1400     1410     1200     1210     1080     1600     1650     1700     1380   
                                           T        V       H0       H01     AOSYM     SMH    MOLCAS    OPER     JKOP   

              2       6        1.65       700     1000      520     2200     2140     2141   
                                         GEOM     BASIS   MCVARS     UHF     MCSCF    MCSCF   

 PROGRAMS   *        TOTAL    CASSCF       RS2    CASSCF       INT      OPTG       RS2    CASSCF       INT      OPTG       RS2
 CPU TIMES  *       974.22      1.66      1.55      2.05      0.57     45.82      1.47      1.87      0.56     44.84      1.58
 REAL TIME  *      1076.49 SEC
 DISK USED  *       461.41 MB      
 SF USED    *        74.85 MB      
 GA USED    *         0.00 MB       (max)       0.00 MB       (current)
 **********************************************************************************************************************************

1PROGRAM * RS2 (Multireference RS Perturbation Theory)     Authors: H.-J. Werner (1993), P. Celani (1998)


 Level shift= 0.25

 Convergence thresholds:  THRVAR = 1.00D-10  THRDEN = 1.00D-10

 Number of optimized states:  1  Roots:   1
 Number of reference states:  1  Roots:   1

 Reference symmetry:                   1   Singlet 
 Number of electrons:                 22
 Maximum number of shells:             4
 Maximum number of spin couplings:     5

 Reference space:        3 conf        3 CSFs
 N elec internal:       45 conf       45 CSFs
 N-1 el internal:       79 conf      128 CSFs
 N-2 el internal:       99 conf      246 CSFs

 Number of electrons in valence space:                     16
 Maximum number of open shell orbitals in reference space:  2
 Maximum number of open shell orbitals in internal spaces:  6


 Number of core orbitals:           3 (   3 )
 Number of closed-shell orbitals:   7 (   7 )
 Number of active  orbitals:        2 (   2 )
 Number of external orbitals:      92 (  92 )

 Molecular orbitals read from record     2141.2  Type=MCSCF/NATURAL (state 1.1)

 Coulomb and exchange operators available. No transformation done.

 Number of p-space configurations:   1

 Reference wavefunction optimized for reference space (refopt=1)

 State     Reference Energy 
   1        -167.80646221

 Number of blocks in overlap matrix:     2   Smallest eigenvalue:  0.10D+01
 Number of N-2 electron functions:      78
 Number of N-1 electron functions:     128

 Number of internal configurations:                   45
 Number of singly external configurations:         11776
 Number of doubly external configurations:        330464
 Total number of contracted configurations:       342285
 Total number of uncontracted configurations:    1052617

 Weight factors for SA-density in H0:    1.000000

 FIMAX=  0.30D+00  FXMAX=  0.34D-11  DIAG=  F  T  NOREF=1  NOINT=0  IHPPD=2

 Nuclear energy:                      57.96840063
 Core energy:                       -163.55420969
 Zeroth-order valence energy:        -12.92837495
 Zeroth-order total energy:         -118.51418400
 First-order energy:                 -49.29227820

 Using uncontracted singles

 Diagonal Coupling coefficients finished.               Storage:    5482 words, CPU-Time:      0.00 seconds.
 Energy denominators for pairs finished in 0 passes.    Storage:   21962 words, CPU-time:      0.00 seconds.

 A level shift of 0.25 is applied.

  ITER. STATE  ROOT     SQ.NORM     CORR.ENERGY   TOTAL ENERGY   ENERGY CHANGE       DEN1      VAR(S)    VAR(P)      TIME
    1     1     1     1.01311780    -0.00327945  -167.80974166    -0.00327945    -0.51576600  0.13D-01  0.12D+00     0.06
    2     1     1     1.13471719    -0.55295956  -168.35942177    -0.54968011    -0.00277861  0.31D-03  0.30D-03     0.07
    3     1     1     1.13691286    -0.55613514  -168.36259735    -0.00317558    -0.00179612  0.24D-04  0.93D-05     0.09
    4     1     1     1.13741660    -0.55639012  -168.36285233    -0.00025498    -0.00008303  0.12D-05  0.72D-06     0.10
    5     1     1     1.13755509    -0.55643238  -168.36289458    -0.00004226    -0.00008479  0.90D-07  0.42D-07     0.12
    6     1     1     1.13758421    -0.55644016  -168.36290236    -0.00000778    -0.00000558  0.63D-08  0.31D-08     0.14
    7     1     1     1.13759289    -0.55644237  -168.36290458    -0.00000221    -0.00000484  0.47D-09  0.24D-09     0.15
    8     1     1     1.13759480    -0.55644284  -168.36290505    -0.00000048    -0.00000042  0.39D-10  0.18D-10     0.17
    9     1     1     1.13759540    -0.55644301  -168.36290521    -0.00000016    -0.00000031  0.30D-11  0.17D-11     0.18
   10     1     1     1.13759554    -0.55644303  -168.36290524    -0.00000003    -0.00000003  0.29D-12  0.13D-12     0.20
   11     1     1     1.13759558    -0.55644304  -168.36290525    -0.00000001    -0.00000002  0.24D-13  0.13D-13     0.22
   12     1     1     1.13759559    -0.55644304  -168.36290525    -0.00000000    -0.00000000  0.24D-14  0.11D-14     0.23
   13     1     1     1.13759560    -0.55644304  -168.36290525    -0.00000000    -0.00000000  0.20D-15  0.12D-15     0.25
   14     1     1     1.13759560    -0.55644304  -168.36290525    -0.00000000    -0.00000000  0.19D-16  0.19D-16     0.27
   15     1     1     1.13759560    -0.55644304  -168.36290525    -0.00000000    -0.00000000  0.16D-17  0.46D-17     0.28
   16     1     1     1.13759560    -0.55644304  -168.36290525    -0.00000000    -0.00000000  0.29D-18  0.82D-18     0.30

 Energies without level shift correction:

   16     1     1     1.13759560    -0.52204414  -168.32850635

 Energy contributions for state 1.1:
 ===================================

            Energy contr.      SQ.Norm of FOWF
 Space I     -0.00101840          0.00040877
 Space S     -0.05405341          0.01562757
 Space P     -0.46697234          0.12155925


 =====================================
 Analysis of CPU times by interactions
 =====================================

       I      S      P

 I   3.3%
 S   3.3%   6.7%
 P   0.0%  30.0%  36.7%

 Initialization:  13.3%
 Other:            6.7%

 Total CPU:        0.3 seconds
 =====================================


 Initialize record     7000.1
 Now solve CP-CASPT2 equations

 A level shift of 0.25 is applied.

  ITER. STATE  ROOT     SQ.NORM     CORR.ENERGY   TOTAL ENERGY   ENERGY CHANGE       DEN1      VAR(S)    VAR(P)      TIME
    1     1     1     1.01794861    -0.00550555  -167.81196776    -0.00550555    -0.66202525  0.18D-01  0.17D+00     0.34
    2     1     1     1.18544069    -0.71398826  -168.52045047    -0.70848271    -0.00422711  0.43D-03  0.42D-03     0.35
    3     1     1     1.18868856    -0.71842728  -168.52488949    -0.00443902    -0.00243871  0.35D-04  0.14D-04     0.37
    4     1     1     1.18943138    -0.71879688  -168.52525908    -0.00036959    -0.00013999  0.18D-05  0.11D-05     0.39
    5     1     1     1.18963934    -0.71885999  -168.52532219    -0.00006311    -0.00011799  0.13D-06  0.64D-07     0.40
    6     1     1     1.18968367    -0.71887181  -168.52533402    -0.00001182    -0.00000934  0.94D-08  0.46D-08     0.42
    7     1     1     1.18969691    -0.71887518  -168.52533739    -0.00000337    -0.00000686  0.70D-09  0.37D-09     0.44
    8     1     1     1.18969988    -0.71887592  -168.52533813    -0.00000074    -0.00000070  0.60D-10  0.28D-10     0.45
    9     1     1     1.18970080    -0.71887615  -168.52533836    -0.00000023    -0.00000044  0.47D-11  0.26D-11     0.47
   10     1     1     1.18970102    -0.71887621  -168.52533842    -0.00000006    -0.00000005  0.43D-12  0.20D-12     0.49
   11     1     1     1.18970109    -0.71887622  -168.52533843    -0.00000001    -0.00000003  0.37D-13  0.20D-13     0.51
   12     1     1     1.18970111    -0.71887623  -168.52533843    -0.00000000    -0.00000000  0.36D-14  0.17D-14     0.52
   13     1     1     1.18970111    -0.71887623  -168.52533843    -0.00000000    -0.00000000  0.32D-15  0.19D-15     0.54
   14     1     1     1.18970111    -0.71887623  -168.52533843    -0.00000000    -0.00000000  0.30D-16  0.25D-16     0.56
   15     1     1     1.18970111    -0.71887623  -168.52533843    -0.00000000    -0.00000000  0.22D-17  0.57D-17     0.57
   16     1     1     1.18970111    -0.71887623  -168.52533843    -0.00000000     0.00000000  0.18D-18  0.14D-17     0.59

 Energies without level shift correction:

   16     1     1     1.18970111    -0.67145095  -168.47791315

 Energy contributions for state 1.1:
 ===================================

            Energy contr.      SQ.Norm of FOWF
 Space I     -0.00146272          0.00059889
 Space S     -0.07100102          0.02134110
 Space P     -0.59898721          0.16776112


 =====================================
 Analysis of CPU times by interactions
 =====================================

       I      S      P

 I   1.7%
 S   3.4%   8.5%
 P   0.0%  33.9%  23.7%

 Initialization:  54.2%
 Other:          -25.4%

 Total CPU:        0.6 seconds
 =====================================



 Reference coefficients greater than 0.0500000
 =============================================
 222222220           0.9962420
 222222202          -0.0866132

 Coefficients of doubly external configurations greater than 0.0500000
 =====================================================================

 PAIR    I     J   ->   K     L     NP  SYM  REF     COEFFICIENTS

  36    9.1   9.1     14.1  14.1     1   1    1   -0.08052925
  49   10.1  10.1     15.1  15.1     1   1    1   -0.07817777
  48   10.1   9.1     14.1  15.1    -1   1    1   -0.06952133
  47   10.1   9.1     14.1  15.1     1   1    1   -0.05029255



 RESULTS FOR STATE 1.1
 =====================

 Coefficient of reference function:   C(0) = 1.00000000 (fixed)   1.00000000 (relaxed)

 Energy contributions of configuration classes

 CLASS          SQ.NORM        ECORR1        ECORR2
 +++++++++++++++++++++++++++++++++++++++++++++++++++
 Internals    0.00059889   -0.00121558    0.48742141
 Singles      0.02134110   -0.06188110   -0.11012172
 Pairs        0.16776112   -0.52774526   -0.93374273
 Total        1.18970111   -0.59084194   -0.55644304
 +++++++++++++++++++++++++++++++++++++++++++++++++++


 Reference energy                    -167.80646221
 Nuclear energy                        57.96840063
 Kinetic energy                       167.98860576
 One electron energy                 -343.00323337
 Two electron energy                  116.67192749
 Virial quotient                       -1.00222812
 Correlation energy                    -0.55644304
 !RSPT2 STATE 1.1 Energy             -168.362905247392

 Properties without orbital relaxation:

 !RSPT2 STATE 1.1 Dipole moment        -0.00000000     0.64584991    -1.46477437
 Dipole moment /Debye                  -0.00000000     1.64147920    -3.72284124


 **********************************************************************************************************************************

1PROGRAM * MULTI (Direct Multiconfiguration SCF)       Authors: P.J. Knowles, H.-J. Werner (1984)     S.T. Elbert (1988)


 Number of closed-shell orbitals:  10 (  10 )
 Number of active  orbitals:        2 (   2 )
 Number of external orbitals:      92 (  92 )

 State symmetry 1

 Number of electrons:     2    Spin symmetry=Singlet   Space symmetry=1
 Number of states:        1
 Number of CSFs:          3
 
 Maximum number of shells:             2
 Maximum number of spin couplings:     1

 Storage for configuration lists       6, coupling coefficients      5, address lists     28

 Molecular orbitals read from record     2141.2  Type=MCSCF/NATURAL (state 1.1)

 EXTRA SYMMETRY OF MOS IN SYMMETRY 1:   1 1 1 1 1 1 2 1 1 2   1 1 1 1 2 1 1 2 1 1   1 1 2 1 2 1 2 1 1 2   1 1 2 1 1 2 1 1 2 1
                                        1 2 1 1 2 1 2 1 1 1   1 2 1 2 2 1 2 1 1 1   2 2 1 1 2 1 2 1 1 2   1 2 1 1 2 1 2 1 1 2
                                        1 1 2 1 1 1 2 1 2 1   1 1 2 2 1 2 1 1 2 1   1 1 1 1

 Wavefunction dump at record             3140.4

 Convergence thresholds  0.10E-04 (gradient)  0.10E-09 (energy)  0.10E-02 (step length)

 Eigenvalues of redundancy matrix
   1-  1   -0.000000

 Number of orbital rotations:     1124   (    20 Core/Active    920 Core/Virtual   0 Active/Active    184 Active/Virtual)
 Total number of variables:       1127


 ITER. MIC  NCI  NEG     ENERGY(VAR)     ENERGY(PROJ)   ENERGY CHANGE     GRAD(0)  GRAD(ORB)   GRAD(CI)     STEP       TIME

   1   26    1    0    -167.80646221    -167.80646221    0.00000000    0.00000000 0.00000000 0.00000000  0.00D+00      0.20

 Warning: orbitals not optimized!

 Solving MCSCF z-vector equations for state  1.1, requested accuracy=      0.10D-05
 Convergence reached in  16 iterations ( 16 expansion vectors), accuracy=  0.95D-06

 Properties including orbital relaxation:

 !RSPT2 dipole moments (ED):           -0.00000000     0.62493771    -1.37937402

 RSPT2 Gradient info saved on record         5200.1

 CPU-time for rhs:            0.59 sec
 CPU-time for cpmcscf:        0.47 sec
 CPU-time for densities:      0.00 sec


 **********************************************************************************************************************************
 DATASETS  * FILE   NREC   LENGTH (MB)   RECORD NAMES
              1      25       40.13       500      610      700      900      950      970     1000      129      960     1100   
                                          VAR    BASINP    GEOM    SYMINP    ZMAT    AOBASIS   BASIS     P2S    ABASIS      S 
                                         1400     1410     1200     1210     1080     1600     1650     1700     1380     7000   
                                           T        V       H0       H01     AOSYM     SMH    MOLCAS    OPER     JKOP   
                                         7001     5200     5210     7009     7005   
                                                 RS2GRAD  RS2GRAD    

              2       6        1.65       700     1000      520     2200     2140     2141   
                                         GEOM     BASIS   MCVARS     UHF     MCSCF    MCSCF   

 PROGRAMS   *        TOTAL       RS2       RS2    CASSCF       INT      OPTG       RS2    CASSCF       INT      OPTG       RS2
 CPU TIMES  *       975.94      1.72      1.55      2.05      0.57     45.82      1.47      1.87      0.56     44.84      1.58
 REAL TIME  *      1078.58 SEC
 DISK USED  *       461.41 MB      
 SF USED    *        74.85 MB      
 GA USED    *         0.00 MB       (max)       0.00 MB       (current)
 **********************************************************************************************************************************
   8  -168.36290525  -168.36290525    -0.00000000  0.00000578  0.00000627  0.00000280  0.00001947  0.00002512  0.00000502     55.41

 Current geometry (xyz format, in Angstrom)

    4
 RS2/CC-PVTZ  ENERGY=-168.36290525
 C          0.0000000000        0.0077344014        0.1392180149
 N          0.0000000000        0.0055072485        1.3094042152
 O          0.0000000000       -0.0627738342       -1.1546622843
 H          0.0000000000        0.8277351931       -1.5265549993

 **********************************************************************************************************************************

 Current variables
 R1=                  1.17018832 ANGSTROM
 A1=                 93.22821786 DEGREE
 R3=                  0.96504431 ANGSTROM
 A2=                109.54712978 DEGREE
 D1=                 -0.00000000 DEGREE

 **********************************************************************************************************************************

 END OF GEOMETRY OPTIMIZATION.

 Optimized variables
 R1=                  1.17018832 ANGSTROM
 A1=                 93.22821786 DEGREE
 R3=                  0.96504431 ANGSTROM
 A2=                109.54712978 DEGREE
 D1=                 -0.00000000 DEGREE

 **********************************************************************************************************************************

 Current geometry (xyz format, in Angstrom)

    4
 RS2/CC-PVTZ  ENERGY=-168.36290525
 C          0.0000000000        0.0077344014        0.1392180149
 N          0.0000000000        0.0055072485        1.3094042152
 O          0.0000000000       -0.0627738342       -1.1546622843
 H          0.0000000000        0.8277351931       -1.5265549993

 **********************************************************************************************************************************

 Geometry written to block  1 of record 700


 **********************************************************************************************************************************
 DATASETS  * FILE   NREC   LENGTH (MB)   RECORD NAMES
              1      25       40.13       500      610      700      900      950      970     1000      129      960     1100   
                                          VAR    BASINP    GEOM    SYMINP    ZMAT    AOBASIS   BASIS     P2S    ABASIS      S 
                                         1400     1410     1200     1210     1080     1600     1650     1700     1380     7000   
                                           T        V       H0       H01     AOSYM     SMH    MOLCAS    OPER     JKOP   
                                         7001     5200     5210     7009     7005   
                                                 RS2GRAD  RS2GRAD    

              2       6        1.65       700     1000      520     2200     2140     2141   
                                         GEOM     BASIS   MCVARS     UHF     MCSCF    MCSCF   

 PROGRAMS   *        TOTAL      OPTG       RS2    CASSCF       INT      OPTG       RS2    CASSCF       INT      OPTG       RS2
 CPU TIMES  *       975.94     55.41      1.55      2.05      0.57     45.82      1.47      1.87      0.56     44.84      1.58
 REAL TIME  *      1078.58 SEC
 DISK USED  *       461.41 MB      
 SF USED    *        74.85 MB      
 GA USED    *         0.00 MB       (max)       0.00 MB       (current)
 **********************************************************************************************************************************

 RS2/cc-pVTZ//RS2/cc-pVTZ energy=   -168.362905247392

       OPTG(RS2)        RS2             CASSCF         OPTG(RS2)        RS2             CASSCF         OPTG(RS2)        RS2     
   -168.36290525   -168.36245104   -167.80578324   -168.35619925   -168.35586153   -167.79879479   -168.33948219   -168.33923136
 **********************************************************************************************************************************
 Variable memory released
