
 Primary working directories    : /scratch/kmoore
 Secondary working directories  : /scratch/kmoore
 Wavefunction directory         : /scratch/kmoore/
 Main file repository           : /scratch/kmoore/

 SHA1      : f86d681fdec979508940bfbbc93fd7db66630888
 NAME      : 2015.1.24
 ARCHNAME  : linux/x86_64
 FC        : /blues/gpfs/home/software/spack-0.10.1/opt/spack/linux-centos7-x86_64/intel-17.0.4/intel-mpi-2017.3-dfphq6kavje2olnichisvjjndtridrok/compilers_and_libraries_2017.4.196/linux/mpi/intel64/bin/mpiifort
 BLASLIB   : -L/blues/gpfs/home/software/spack-0.10.1/opt/spack/linux-centos7-x86_64/intel-17.0.4/intel-mkl-2017.3.196-jyjmyutcol3veyt4bazftyqkxxzmfd7o/pkg/compilers_and_libraries_2017.4.196/linux/mkl/lib/intel64 -lmkl_intel_ilp64 -lmkl_intel_thread -lmkl_core
 id        : anlgov

 Nodes     nprocs
 b460         3
 Number of processes for MPI-2 version of Molpro:   nprocs(total)=    4   nprocs(compute)=    3   nprocs(helper)=    1

 Using customized tuning parameters: mindgm=7; mindgv=16; mindgc=1; mindgr=1; noblas=0; minvec=7
 default implementation of scratch files=sf  

 memory,1000,m
 gthresh,energy=1.0d-10,orbital=1.0d-10
 
 angstrom
 Geometry = {
 O         -0.00000       -0.01840        0.00000
 H          0.00000        0.53835       -0.78304
 H         -0.00000        0.53835        0.78304
 }
 
 basis=6-31G*
 
 {rhf}
 {ccsd(t)}
 {optg}
 

 Variables initialized (889), CPU time= 0.01 sec
 Commands  initialized (702), CPU time= 0.01 sec, 572 directives.
 Default parameters read. Elapsed time= 0.14 sec

 Checking input...
 Passed
1


                                         ***  PROGRAM SYSTEM MOLPRO  ***
                                       Copyright, TTI GmbH Stuttgart, 2015
                                    Version 2015.1 linked Sep 21 2017 09:51:13


 **********************************************************************************************************************************
 LABEL *                                                                                 
  64 bit mpp version                                                                     DATE: 18-Oct-19          TIME: 01:17:11  
 **********************************************************************************************************************************

 SHA1:             f86d681fdec979508940bfbbc93fd7db66630888
 **********************************************************************************************************************************

 THRESHOLDS:

 ZERO    =  1.00D-12  ONEINT  =  1.00D-12  TWOINT  =  1.00D-11  PREFAC  =  1.00D-14  LOCALI  =  1.00D-09  EORDER  =  1.00D-04
 ENERGY  =  1.00D-10  ETEST   =  0.00D+00  EDENS   =  0.00D+00  THRDEDEF=  1.00D-06  GRADIENT=  1.00D-02  STEP    =  1.00D-03
 ORBITAL =  1.00D-10  CIVEC   =  1.00D-05  COEFF   =  1.00D-04  PRINTCI =  5.00D-02  PUNCHCI =  9.90D+01  OPTGRAD =  3.00D-04
 OPTENERG=  1.00D-06  OPTSTEP =  3.00D-04  THRGRAD =  1.00D-10  COMPRESS=  1.00D-11  VARMIN  =  1.00D-07  VARMAX  =  1.00D-03
 THRDOUB =  0.00D+00  THRDIV  =  1.00D-05  THRRED  =  1.00D-07  THRPSP  =  1.00D+00  THRDC   =  1.00D-10  THRCS   =  1.00D-10
 THRNRM  =  1.00D-08  THREQ   =  0.00D+00  THRDE   =  1.00D+00  THRREF  =  1.00D-05  SPARFAC =  1.00D+00  THRDLP  =  1.00D-07
 THRDIA  =  1.00D-10  THRDLS  =  1.00D-07  THRGPS  =  0.00D+00  THRKEX  =  0.00D+00  THRDIS  =  2.00D-01  THRVAR  =  1.00D-10
 THRLOC  =  1.00D-06  THRGAP  =  1.00D-06  THRLOCT = -1.00D+00  THRGAPT = -1.00D+00  THRORB  =  1.00D-06  THRMLTP =  0.00D+00
 THRCPQCI=  1.00D-10  KEXTA   =  0.00D+00  THRCOARS=  0.00D+00  SYMTOL  =  1.00D-06  GRADTOL =  1.00D-06  THROVL  =  1.00D-08
 THRORTH =  1.00D-08  GRID    =  1.00D-06  GRIDMAX =  1.00D-03  DTMAX   =  0.00D+00  THROCCDE=  1.00D-01  THROCCDE=  1.00D-01


 ZUNIT=ANG
 

Geometry recognized as XYZ


 Variable memory set to 1000000000 words,  buffer space   230000 words

 SETTING BASIS          =    6-31G*


 Recomputing integrals since basis changed


 Using spherical harmonics

 Library entry O      S 6-31G                selected for orbital group  1
 Library entry O      P 6-31G                selected for orbital group  1
 Library entry O      D 6-31G*               selected for orbital group  1
 Library entry H      S 6-31G                selected for orbital group  2


 PROGRAM * SEWARD (Integral evaluation for generally contracted gaussian basis sets)     Author: Roland Lindh, 1990

 Geometry written to block  1 of record 700


 Point group  C2v 



 ATOMIC COORDINATES

 NR  ATOM    CHARGE       X              Y              Z

   1  O       8.00    0.000000000   -0.034770961    0.000000000
   2  H       1.00    0.000000000    1.017334059   -1.479731145
   3  H       1.00    0.000000000    1.017334059    1.479731145

 Bond lengths in Bohr (Angstrom)

 1-2  1.815634664  1-3  1.815634664
     ( 0.960792488)     ( 0.960792488)

 Bond angles

  2-1-3  109.17351408

 NUCLEAR CHARGE:                   10
 NUMBER OF PRIMITIVE AOS:          36
 NUMBER OF SYMMETRY AOS:           35
 NUMBER OF CONTRACTIONS:           18   (   9A1  +   3B1  +   5B2  +   1A2  )
 NUMBER OF CORE ORBITALS:           1   (   1A1  +   0B1  +   0B2  +   0A2  )
 NUMBER OF VALENCE ORBITALS:        6   (   3A1  +   1B1  +   2B2  +   0A2  )


 NUCLEAR REPULSION ENERGY    9.15024474

 Eigenvalues of metric

         1 0.643E-01 0.259E+00 0.427E+00 0.660E+00 0.983E+00 0.100E+01 0.110E+01 0.162E+01
         2 0.498E+00 0.100E+01 0.150E+01
         3 0.112E+00 0.191E+00 0.679E+00 0.114E+01 0.234E+01
         4 0.100E+01


 Contracted 2-electron integrals neglected if value below      1.0D-14
 AO integral compression algorithm  1   Integral accuracy      1.0D-14

     0.786 MB (compressed) written to integral file (100.0%)

     Node minimum: 0.262 MB, node maximum: 0.262 MB


 NUMBER OF SORTED TWO-ELECTRON INTEGRALS:       1611.     BUFFER LENGTH:  32768
 NUMBER OF SEGMENTS:   1  SEGMENT LENGTH:       1611      RECORD LENGTH: 524288

 Memory used in sort:       0.56 MW

 SORT1 READ        6192. AND WROTE        1347. INTEGRALS IN      1 RECORDS. CPU TIME:     0.01 SEC, REAL TIME:     0.01 SEC
 SORT2 READ        3938. AND WROTE        4885. INTEGRALS IN      3 RECORDS. CPU TIME:     0.00 SEC, REAL TIME:     0.00 SEC

 Node minimum:        1508.  Node maximum:        1766. integrals

 OPERATOR DM      FOR CENTER  0  COORDINATES:    0.000000    0.000000    0.000000


 **********************************************************************************************************************************
 DATASETS  * FILE   NREC   LENGTH (MB)   RECORD NAMES
              1      18       19.10       500      610      700      900      950      970     1000      129      960     1100   
                                          VAR    BASINP    GEOM    SYMINP    ZMAT    AOBASIS   BASIS     P2S    ABASIS      S 
                                         1400     1410     1200     1210     1080     1600     1650     1700   
                                           T        V       H0       H01     AOSYM     SMH    MOLCAS    OPER   

 PROGRAMS   *        TOTAL       INT
 CPU TIMES  *         0.29      0.14
 REAL TIME  *         0.83 SEC
 DISK USED  *        12.64 MB      
 GA USED    *         0.00 MB       (max)       0.00 MB       (current)
 **********************************************************************************************************************************


 PROGRAM * RHF-SCF (CLOSED SHELL)       Authors: W. Meyer, H.-J. Werner


 NUMBER OF ELECTRONS:       5+    5-
 CONVERGENCE THRESHOLDS:    1.00E-10 (Density)    1.00E-11 (Energy)
 MAX. NUMBER OF ITERATIONS:       60
 INTERPOLATION TYPE:            DIIS
 INTERPOLATION STEPS:              2 (START)      1 (STEP)
 LEVEL SHIFTS:                  0.00 (CLOSED)  0.00 (OPEN) 



 Orbital guess generated from atomic densities. Full valence occupancy:    4   1   2   0

 Molecular orbital dump at record        2100.2

 Initial occupancy:   3   1   1   0

 ITERATION    DDIFF          GRAD             ENERGY        2-EL.EN.            DIPOLE MOMENTS         DIIS   ORB.
    1      0.000D+00      0.000D+00       -75.96881665     77.814912    0.00000    1.15319    0.00000    0    start
    2      0.000D+00      0.441D-01       -75.99917714     74.384068    0.00000    0.79509    0.00000    1    diag
    3      0.431D-01      0.235D-01       -76.00829615     75.774580    0.00000    0.85877    0.00000    2    diag
    4      0.161D-01      0.255D-02       -76.00850663     75.677383    0.00000    0.84623    0.00000    3    diag
    5      0.218D-02      0.619D-03       -76.00852079     75.687687    0.00000    0.84195    0.00000    4    diag
    6      0.735D-03      0.105D-03       -76.00852135     75.687848    0.00000    0.84107    0.00000    5    diag
    7      0.184D-03      0.151D-04       -76.00852136     75.687846    0.00000    0.84092    0.00000    6    diag
    8      0.302D-04      0.228D-05       -76.00852136     75.687834    0.00000    0.84090    0.00000    7    diag
    9      0.425D-05      0.527D-06       -76.00852136     75.687832    0.00000    0.84090    0.00000    8    diag
   10      0.118D-05      0.611D-07       -76.00852136     75.687833    0.00000    0.84090    0.00000    9    orth
   11      0.116D-06      0.711D-08       -76.00852136     75.687833    0.00000    0.84090    0.00000    9    diag
   12      0.171D-07      0.955D-09       -76.00852136     75.687833    0.00000    0.84090    0.00000    9    diag
   13      0.162D-08      0.156D-09       -76.00852136     75.687833    0.00000    0.84090    0.00000    9    diag
   14      0.172D-09      0.127D-10       -76.00852136     75.687833    0.00000    0.84090    0.00000    9    diag
   15      0.157D-10      0.248D-11       -76.00852136     75.687833    0.00000    0.84090    0.00000    0    orth

 Final occupancy:   3   1   1   0

 !RHF STATE 1.1 Energy                -76.008521361093
 Nuclear energy                         9.15024474
 One-electron energy                 -123.00268275
 Two-electron energy                   37.84391665
 Virial quotient                       -1.00066836
 !RHF STATE 1.1 Dipole moment           0.00000000     0.84090061     0.00000000
 Dipole moment /Debye                   0.00000000     2.13721617     0.00000000

 Orbital energies:

         1.1          2.1          3.1          4.1          5.1
    -20.552683    -1.335563    -0.560742     0.214372     1.129365

         1.2          2.2          3.2
     -0.495379     1.169685     2.073659

         1.3          2.3          3.3
     -0.713058     0.304017     1.043676

         1.4
      2.030782

 HOMO      1.2    -0.495379 =     -13.4799eV
 LUMO      4.1     0.214372 =       5.8333eV
 LUMO-HOMO         0.709750 =      19.3133eV


 **********************************************************************************************************************************
 DATASETS  * FILE   NREC   LENGTH (MB)   RECORD NAMES
              1      18       19.10       500      610      700      900      950      970     1000      129      960     1100   
                                          VAR    BASINP    GEOM    SYMINP    ZMAT    AOBASIS   BASIS     P2S    ABASIS      S 
                                         1400     1410     1200     1210     1080     1600     1650     1700   
                                           T        V       H0       H01     AOSYM     SMH    MOLCAS    OPER   

              2       4        2.78       700     1000      520     2100   
                                         GEOM     BASIS   MCVARS     RHF  

 PROGRAMS   *        TOTAL       RHF       INT
 CPU TIMES  *         0.35      0.06      0.14
 REAL TIME  *         0.92 SEC
 DISK USED  *        78.41 MB      
 SF USED    *         0.00 MB      
 GA USED    *         0.00 MB       (max)       0.00 MB       (current)
 **********************************************************************************************************************************


 PROGRAM * CCSD (Closed-shell coupled cluster)     Authors: C. Hampel, H.-J. Werner, 1991, M. Deegan, P.J. Knowles, 1992


 Convergence thresholds:  THRVAR = 1.00D-14  THRDEN = 1.00D-10

 CCSD(T)     terms to be evaluated (factor= 1.000)


 Number of core orbitals:           1 (   1   0   0   0 )
 Number of closed-shell orbitals:   4 (   2   1   1   0 )
 Number of external orbitals:      13 (   6   2   4   1 )

 Molecular orbitals read from record     2100.2  Type=RHF/CANONICAL (state 1.1)

 Number of N-1 electron functions:               4
 Number of N-2 electron functions:              10
 Number of singly external CSFs:                18
 Number of doubly external CSFs:               393
 Total number of CSFs:                         412

 Length of J-op  integral file:               0.00 MB
 Length of K-op  integral file:               0.01 MB
 Length of 3-ext integral record:             0.00 MB

 Memory could be reduced to 0.29 Mwords without degradation in triples

 Integral transformation finished. Total CPU:   0.00 sec, npass=  1  Memory used:   0.07 MW

 Reference energy:                    -76.00852136

 MP2 singlet pair energy:              -0.11370203
 MP2 triplet pair energy:              -0.07099403
 MP2 correlation energy:               -0.18469606
 MP2 total energy:                    -76.19321742

 SCS-MP2 correlation energy:           -0.18061650   (PS=  1.200000  PT=  0.333333)
 SCS-MP2 total energy:                -76.18913786

 ITER.      SQ.NORM     CORR.ENERGY   TOTAL ENERGY   ENERGY CHANGE        DEN1      VAR(S)    VAR(P)  DIIS     TIME  TIME/IT
   1      1.05197296    -0.19282921   -76.20135057    -0.00813315    -0.00476841  0.25D-03  0.70D-03  1  1     0.01     0.00
   2      1.05530259    -0.19385014   -76.20237150    -0.00102093    -0.00386338  0.53D-05  0.51D-04  2  2     0.01     0.00
   3      1.05600055    -0.19394010   -76.20246146    -0.00008996    -0.00051875  0.22D-05  0.21D-05  3  3     0.02     0.00
   4      1.05614223    -0.19393843   -76.20245979     0.00000167    -0.00007803  0.10D-06  0.12D-06  4  4     0.02     0.00
   5      1.05617119    -0.19393726   -76.20245862     0.00000117    -0.00001239  0.33D-07  0.58D-08  5  5     0.02     0.00
   6      1.05617511    -0.19393701   -76.20245837     0.00000025     0.00000051  0.28D-08  0.77D-09  6  6     0.03     0.00
   7      1.05617766    -0.19393691   -76.20245827     0.00000009    -0.00000024  0.10D-09  0.53D-10  6  1     0.03     0.00
   8      1.05617806    -0.19393688   -76.20245824     0.00000003    -0.00000004  0.12D-11  0.35D-11  6  2     0.03     0.00
   9      1.05617814    -0.19393687   -76.20245823     0.00000001    -0.00000004  0.60D-13  0.21D-12  6  3     0.03     0.00
  10      1.05617818    -0.19393687   -76.20245823     0.00000000    -0.00000003  0.25D-14  0.64D-14  6  4     0.03     0.00
  11      1.05617818    -0.19393687   -76.20245823     0.00000000    -0.00000000  0.16D-15  0.25D-15  6  5     0.03     0.00
  12      1.05617818    -0.19393687   -76.20245823     0.00000000    -0.00000000  0.48D-17  0.16D-16  6  6     0.04     0.00

 Norm of t1 vector:      0.02264077      S-energy:     0.00000000      T1 diagnostic:  0.00566019
                                                                       D1 diagnostic:  0.01022721

 Doubles amplitudes (print threshold =  0.500E-01):

         I         J         SYM. A    SYM. B    A         B      T(IJ, AB)

         3         3         2         2         1         1     -0.05242408


 Total CPU time for triples:      0.00 sec


 RESULTS
 =======

  Reference energy                    -76.008521361093
  CCSD singlet pair energy             -0.131224780971
  CCSD triplet pair energy             -0.062712087391
  CCSD correlation energy              -0.193936868338

  Triples (T) contribution             -0.001728594339
  Total correlation energy             -0.195665462676

  CCSD total energy                   -76.202458229430
  CCSD[T] energy                      -76.204272624833
  CCSD-T energy                       -76.204148461814
 !CCSD(T) total energy                -76.204186823769

 Timing summary (sec):

 STEP                 CPU(USER)    SYS     CPU(TOT)    WALL
 CCSD iterations         0.04      0.02      0.06      0.06

 Program statistics:

 Available memory in ccsd:               999999836
 Min. memory needed in ccsd:                  3277
 Max. memory used in ccsd:                    3491
 Max. memory used in cckext:                 36036 (12 integral passes)



 **********************************************************************************************************************************
 DATASETS  * FILE   NREC   LENGTH (MB)   RECORD NAMES
              1      19       19.12       500      610      700      900      950      970     1000      129      960     1100   
                                          VAR    BASINP    GEOM    SYMINP    ZMAT    AOBASIS   BASIS     P2S    ABASIS      S 
                                         1400     1410     1200     1210     1080     1600     1650     1700     1380   
                                           T        V       H0       H01     AOSYM     SMH    MOLCAS    OPER     JKOP   

              2       4        2.78       700     1000      520     2100   
                                         GEOM     BASIS   MCVARS     RHF  

 PROGRAMS   *        TOTAL   CCSD(T)       RHF       INT
 CPU TIMES  *         0.41      0.06      0.06      0.14
 REAL TIME  *         1.01 SEC
 DISK USED  *        78.48 MB      
 SF USED    *         0.08 MB      
 GA USED    *         0.00 MB       (max)       0.00 MB       (current)
 **********************************************************************************************************************************


 PROGRAM * OPT (Geometry optimization)     Authors: F. Eckert and H.-J. Werner


 BFGS update of hessian

 Running default procedure: RHF-SCF000  CCSD(T)

 Geometry optimization using default procedure for command CCSD(T)

 Geometry written to block  1 of record 700
 

 Generated   2 symmetrical displacements

 Number of displacements for numerical gradient:      4

 Starting numerical gradient for CCSD(T)
 Starting task   1   Incrementing displacement  1 by  1.   CPU=    0.00 sec, Elapsed=    0.00 sec


 Recomputing integrals since geometry changed


 PROGRAM * SEWARD (Integral evaluation for generally contracted gaussian basis sets)     Author: Roland Lindh, 1990

 Geometry written to block  1 of record 700


 Point group  C2v 



 ATOMIC COORDINATES

 NR  ATOM    CHARGE       X              Y              Z

   1  O       8.00    0.000000000   -0.029457839    0.000000000
   2  H       1.00    0.000000000    1.014677498   -1.485100320
   3  H       1.00    0.000000000    1.014677498    1.485100320

 Bond lengths in Bohr (Angstrom)

 1-2  1.815417738  1-3  1.815417738
     ( 0.960677695)     ( 0.960677695)

 Bond angles

  2-1-3  109.77989292

 NUCLEAR CHARGE:                   10
 NUMBER OF PRIMITIVE AOS:          36
 NUMBER OF SYMMETRY AOS:           35
 NUMBER OF CONTRACTIONS:           18   (   9A1  +   3B1  +   5B2  +   1A2  )
 NUMBER OF CORE ORBITALS:           1   (   1A1  +   0B1  +   0B2  +   0A2  )
 NUMBER OF VALENCE ORBITALS:        6   (   3A1  +   1B1  +   2B2  +   0A2  )


 NUCLEAR REPULSION ENERGY    9.15007611

 Eigenvalues of metric

         1 0.644E-01 0.259E+00 0.428E+00 0.659E+00 0.983E+00 0.100E+01 0.110E+01 0.162E+01
         2 0.498E+00 0.100E+01 0.150E+01
         3 0.112E+00 0.191E+00 0.680E+00 0.114E+01 0.235E+01
         4 0.100E+01


 Contracted 2-electron integrals neglected if value below      1.0D-14
 AO integral compression algorithm  1   Integral accuracy      1.0D-14

     0.786 MB (compressed) written to integral file (100.0%)

     Node minimum: 0.262 MB, node maximum: 0.262 MB


 NUMBER OF SORTED TWO-ELECTRON INTEGRALS:       1611.     BUFFER LENGTH:  32768
 NUMBER OF SEGMENTS:   1  SEGMENT LENGTH:       1611      RECORD LENGTH: 524288

 Memory used in sort:       0.56 MW

 SORT1 READ        6192. AND WROTE        1347. INTEGRALS IN      1 RECORDS. CPU TIME:     0.00 SEC, REAL TIME:     0.00 SEC
 SORT2 READ        3938. AND WROTE        4885. INTEGRALS IN      3 RECORDS. CPU TIME:     0.00 SEC, REAL TIME:     0.01 SEC

 Node minimum:        1508.  Node maximum:        1766. integrals

 OPERATOR DM      FOR CENTER  0  COORDINATES:    0.000000    0.000000    0.000000

 PROGRAM * RHF-SCF (CLOSED SHELL)       Authors: W. Meyer, H.-J. Werner


 NUMBER OF ELECTRONS:       5+    5-
 CONVERGENCE THRESHOLDS:    1.00E-10 (Density)    1.00E-11 (Energy)
 MAX. NUMBER OF ITERATIONS:       60
 INTERPOLATION TYPE:            DIIS
 INTERPOLATION STEPS:              2 (START)      1 (STEP)
 LEVEL SHIFTS:                  0.00 (CLOSED)  0.00 (OPEN) 

 Number of closed-shell orbitals:    5 (   3   1   1   0 )


 Molecular orbitals read from record     2100.2  Type=RHF/CANONICAL (state 1.1)

 Molecular orbital dump at record        2100.1

 ITERATION    DDIFF          GRAD             ENERGY        2-EL.EN.            DIPOLE MOMENTS         DIIS   ORB.
    1      0.000D+00      0.000D+00       -76.00837748     75.689682    0.00000    0.83401    0.00000    0    start
    2      0.000D+00      0.375D-03       -76.00838094     75.692814    0.00000    0.83600    0.00000    1    diag
    3      0.300D-03      0.778D-04       -76.00838116     75.691057    0.00000    0.83615    0.00000    2    diag
    4      0.894D-04      0.219D-04       -76.00838117     75.692513    0.00000    0.83636    0.00000    3    diag
    5      0.290D-04      0.102D-04       -76.00838118     75.692086    0.00000    0.83640    0.00000    4    diag
    6      0.107D-04      0.227D-05       -76.00838118     75.692132    0.00000    0.83643    0.00000    5    diag
    7      0.569D-05      0.399D-06       -76.00838118     75.692130    0.00000    0.83643    0.00000    6    diag
    8      0.951D-06      0.564D-07       -76.00838118     75.692131    0.00000    0.83643    0.00000    7    orth
    9      0.817D-07      0.639D-08       -76.00838118     75.692131    0.00000    0.83643    0.00000    8    diag
   10      0.933D-08      0.100D-08       -76.00838118     75.692131    0.00000    0.83643    0.00000    9    diag
   11      0.195D-08      0.711D-10       -76.00838118     75.692131    0.00000    0.83643    0.00000    9    diag
   12      0.141D-09      0.935D-11       -76.00838118     75.692131    0.00000    0.83643    0.00000    9    diag
   13      0.146D-10      0.815D-12       -76.00838118     75.692131    0.00000    0.83643    0.00000    0    orth

 Final occupancy:   3   1   1   0

 !RHF STATE 1.1 Energy                -76.008381177589
 Nuclear energy                         9.15007611
 One-electron energy                 -123.00452277
 Two-electron energy                   37.84606549
 Virial quotient                       -1.00067184
 !RHF STATE 1.1 Dipole moment           0.00000000     0.83643346     0.00000000
 Dipole moment /Debye                   0.00000000     2.12586255     0.00000000

 Orbital energies:

         1.1          2.1          3.1          4.1          5.1
    -20.552274    -1.335119    -0.559525     0.214423     1.125434

         1.2          2.2          3.2
     -0.495125     1.169870     2.074343

         1.3          2.3          3.3
     -0.714154     0.304101     1.046913

         1.4
      2.030293

 HOMO      1.2    -0.495125 =     -13.4730eV
 LUMO      4.1     0.214423 =       5.8348eV
 LUMO-HOMO         0.709548 =      19.3078eV


 **********************************************************************************************************************************
 DATASETS  * FILE   NREC   LENGTH (MB)   RECORD NAMES
              1      19       21.59       500      610      700      900      950      970     1000      129      960     1100   
                                          VAR    BASINP    GEOM    SYMINP    ZMAT    AOBASIS   BASIS     P2S    ABASIS      S 
                                         1400     1410     1200     1210     1080     1600     1650     1700     2100   
                                           T        V       H0       H01     AOSYM     SMH    MOLCAS    OPER      RHF  

              2       5        2.79       700     1000      520     2100     5600   
                                         GEOM     BASIS   MCVARS     RHF     GINFO   

 PROGRAMS   *        TOTAL       RHF   CCSD(T)       RHF       INT
 CPU TIMES  *         1.30      0.36      0.06      0.06      0.14
 REAL TIME  *         3.12 SEC
 DISK USED  *        85.91 MB      
 SF USED    *         0.08 MB      
 GA USED    *         0.00 MB       (max)       0.00 MB       (current)
 **********************************************************************************************************************************


 PROGRAM * CCSD (Closed-shell coupled cluster)     Authors: C. Hampel, H.-J. Werner, 1991, M. Deegan, P.J. Knowles, 1992


 Convergence thresholds:  THRVAR = 1.00D-14  THRDEN = 1.00D-10

 CCSD(T)     terms to be evaluated (factor= 1.000)


 Number of core orbitals:           1 (   1   0   0   0 )
 Number of closed-shell orbitals:   4 (   2   1   1   0 )
 Number of external orbitals:      13 (   6   2   4   1 )

 Molecular orbitals read from record     2100.1  Type=RHF/CANONICAL (state 1.1)

 Number of N-1 electron functions:               4
 Number of N-2 electron functions:              10
 Number of singly external CSFs:                18
 Number of doubly external CSFs:               393
 Total number of CSFs:                         412

 Length of J-op  integral file:               0.00 MB
 Length of K-op  integral file:               0.01 MB
 Length of 3-ext integral record:             0.00 MB

 Memory could be reduced to 0.29 Mwords without degradation in triples

 Integral transformation finished. Total CPU:   0.00 sec, npass=  1  Memory used:   0.07 MW

 Reference energy:                    -76.00838118

 MP2 singlet pair energy:              -0.11368106
 MP2 triplet pair energy:              -0.07099030
 MP2 correlation energy:               -0.18467136
 MP2 total energy:                    -76.19305254

 SCS-MP2 correlation energy:           -0.18058902   (PS=  1.200000  PT=  0.333333)
 SCS-MP2 total energy:                -76.18897019

 ITER.      SQ.NORM     CORR.ENERGY   TOTAL ENERGY   ENERGY CHANGE        DEN1      VAR(S)    VAR(P)  DIIS     TIME  TIME/IT
   1      1.05195152    -0.19280571   -76.20118689    -0.00813435    -0.00477335  0.25D-03  0.70D-03  1  1     0.01     0.00
   2      1.05527624    -0.19382540   -76.20220658    -0.00101969    -0.00385966  0.53D-05  0.51D-04  2  2     0.01     0.00
   3      1.05597229    -0.19391531   -76.20229649    -0.00008991    -0.00051761  0.22D-05  0.21D-05  3  3     0.01     0.00
   4      1.05611364    -0.19391361   -76.20229479     0.00000170    -0.00007785  0.10D-06  0.12D-06  4  4     0.01     0.00
   5      1.05614264    -0.19391244   -76.20229362     0.00000117    -0.00001239  0.33D-07  0.58D-08  5  5     0.02     0.00
   6      1.05614660    -0.19391219   -76.20229337     0.00000025     0.00000051  0.29D-08  0.77D-09  6  6     0.02     0.00
   7      1.05614917    -0.19391210   -76.20229328     0.00000009    -0.00000024  0.10D-09  0.54D-10  6  1     0.02     0.00
   8      1.05614958    -0.19391207   -76.20229325     0.00000003    -0.00000004  0.12D-11  0.36D-11  6  2     0.02     0.00
   9      1.05614966    -0.19391206   -76.20229324     0.00000001    -0.00000004  0.60D-13  0.21D-12  6  3     0.02     0.00
  10      1.05614969    -0.19391206   -76.20229323     0.00000000    -0.00000003  0.25D-14  0.64D-14  6  4     0.02     0.00
  11      1.05614970    -0.19391206   -76.20229323     0.00000000    -0.00000000  0.17D-15  0.25D-15  6  5     0.02     0.00
  12      1.05614970    -0.19391206   -76.20229323     0.00000000    -0.00000000  0.51D-17  0.16D-16  6  6     0.03     0.00

 Norm of t1 vector:      0.02261655      S-energy:     0.00000000      T1 diagnostic:  0.00565414
                                                                       D1 diagnostic:  0.01023634

 Doubles amplitudes (print threshold =  0.500E-01):

         I         J         SYM. A    SYM. B    A         B      T(IJ, AB)

         3         3         2         2         1         1     -0.05242909

 Total CPU time for triples:      0.00 sec


 RESULTS
 =======

  Reference energy                    -76.008381177589
  CCSD singlet pair energy             -0.131196688350
  CCSD triplet pair energy             -0.062715367626
  CCSD correlation energy              -0.193912055951

  Triples (T) contribution             -0.001725775198
  Total correlation energy             -0.195637831149

  CCSD total energy                   -76.202293233540
  CCSD[T] energy                      -76.204104758840
  CCSD-T energy                       -76.203980677216
 !CCSD(T) total energy                -76.204019008738

 Timing summary (sec):

 STEP                 CPU(USER)    SYS     CPU(TOT)    WALL
 CCSD iterations         0.03      0.01      0.04      0.03

 Program statistics:

 Available memory in ccsd:               999998800
 Min. memory needed in ccsd:                  3277
 Max. memory used in ccsd:                    3491
 Max. memory used in cckext:                 36036 (12 integral passes)



 **********************************************************************************************************************************
 DATASETS  * FILE   NREC   LENGTH (MB)   RECORD NAMES
              1      20       21.62       500      610      700      900      950      970     1000      129      960     1100   
                                          VAR    BASINP    GEOM    SYMINP    ZMAT    AOBASIS   BASIS     P2S    ABASIS      S 
                                         1400     1410     1200     1210     1080     1600     1650     1700     2100     1380   
                                           T        V       H0       H01     AOSYM     SMH    MOLCAS    OPER      RHF     JKOP   

              2       5        2.79       700     1000      520     2100     5600   
                                         GEOM     BASIS   MCVARS     RHF     GINFO   

 PROGRAMS   *        TOTAL   CCSD(T)   CCSD(T)       RHF       INT
 CPU TIMES  *         1.36      0.06      0.06      0.06      0.14
 REAL TIME  *         3.20 SEC
 DISK USED  *        85.99 MB      
 SF USED    *         0.08 MB      
 GA USED    *         0.00 MB       (max)       0.00 MB       (current)
 **********************************************************************************************************************************
 Starting task   2   Incrementing displacement  1 by -1.   CPU=    0.49 sec, Elapsed=    0.49 sec


 Recomputing integrals since geometry changed


 PROGRAM * SEWARD (Integral evaluation for generally contracted gaussian basis sets)     Author: Roland Lindh, 1990

 Geometry written to block  1 of record 700


 Point group  C2v 



 ATOMIC COORDINATES

 NR  ATOM    CHARGE       X              Y              Z

   1  O       8.00    0.000000000   -0.040084083    0.000000000
   2  H       1.00    0.000000000    1.019990620   -1.474361969
   3  H       1.00    0.000000000    1.019990620    1.474361969

 Bond lengths in Bohr (Angstrom)

 1-2  1.815902418  1-3  1.815902418
     ( 0.960934177)     ( 0.960934177)

 Bond angles

  2-1-3  108.56729709

 NUCLEAR CHARGE:                   10
 NUMBER OF PRIMITIVE AOS:          36
 NUMBER OF SYMMETRY AOS:           35
 NUMBER OF CONTRACTIONS:           18   (   9A1  +   3B1  +   5B2  +   1A2  )
 NUMBER OF CORE ORBITALS:           1   (   1A1  +   0B1  +   0B2  +   0A2  )
 NUMBER OF VALENCE ORBITALS:        6   (   3A1  +   1B1  +   2B2  +   0A2  )


 NUCLEAR REPULSION ENERGY    9.15017589

 Eigenvalues of metric

         1 0.642E-01 0.259E+00 0.427E+00 0.661E+00 0.983E+00 0.100E+01 0.110E+01 0.162E+01
         2 0.498E+00 0.100E+01 0.150E+01
         3 0.113E+00 0.191E+00 0.678E+00 0.114E+01 0.234E+01
         4 0.100E+01


 Contracted 2-electron integrals neglected if value below      1.0D-14
 AO integral compression algorithm  1   Integral accuracy      1.0D-14

     0.786 MB (compressed) written to integral file (100.0%)

     Node minimum: 0.262 MB, node maximum: 0.262 MB


 NUMBER OF SORTED TWO-ELECTRON INTEGRALS:       1611.     BUFFER LENGTH:  32768
 NUMBER OF SEGMENTS:   1  SEGMENT LENGTH:       1611      RECORD LENGTH: 524288

 Memory used in sort:       0.56 MW

 SORT1 READ        6192. AND WROTE        1347. INTEGRALS IN      1 RECORDS. CPU TIME:     0.01 SEC, REAL TIME:     0.00 SEC
 SORT2 READ        3938. AND WROTE        4885. INTEGRALS IN      3 RECORDS. CPU TIME:     0.00 SEC, REAL TIME:     0.01 SEC

 Node minimum:        1508.  Node maximum:        1766. integrals

 OPERATOR DM      FOR CENTER  0  COORDINATES:    0.000000    0.000000    0.000000

 PROGRAM * RHF-SCF (CLOSED SHELL)       Authors: W. Meyer, H.-J. Werner


 NUMBER OF ELECTRONS:       5+    5-
 CONVERGENCE THRESHOLDS:    1.00E-10 (Density)    1.00E-11 (Energy)
 MAX. NUMBER OF ITERATIONS:       60
 INTERPOLATION TYPE:            DIIS
 INTERPOLATION STEPS:              2 (START)      1 (STEP)
 LEVEL SHIFTS:                  0.00 (CLOSED)  0.00 (OPEN) 

 Number of closed-shell orbitals:    5 (   3   1   1   0 )


 Molecular orbitals read from record     2100.2  Type=RHF/CANONICAL (state 1.1)

 Molecular orbital dump at record        2100.1

 ITERATION    DDIFF          GRAD             ENERGY        2-EL.EN.            DIPOLE MOMENTS         DIIS   ORB.
    1      0.000D+00      0.000D+00       -76.00863640     75.685918    0.00000    0.84781    0.00000    0    start
    2      0.000D+00      0.375D-03       -76.00863987     75.682339    0.00000    0.84578    0.00000    1    diag
    3      0.302D-03      0.790D-04       -76.00864009     75.684384    0.00000    0.84565    0.00000    2    diag
    4      0.901D-04      0.233D-04       -76.00864011     75.682799    0.00000    0.84542    0.00000    3    diag
    5      0.294D-04      0.105D-04       -76.00864011     75.683227    0.00000    0.84538    0.00000    4    diag
    6      0.111D-04      0.227D-05       -76.00864011     75.683188    0.00000    0.84535    0.00000    5    diag
    7      0.565D-05      0.396D-06       -76.00864011     75.683189    0.00000    0.84535    0.00000    6    diag
    8      0.938D-06      0.563D-07       -76.00864011     75.683188    0.00000    0.84535    0.00000    7    orth
    9      0.819D-07      0.641D-08       -76.00864011     75.683188    0.00000    0.84535    0.00000    8    diag
   10      0.944D-08      0.100D-08       -76.00864011     75.683188    0.00000    0.84535    0.00000    9    diag
   11      0.197D-08      0.688D-10       -76.00864011     75.683188    0.00000    0.84535    0.00000    9    diag
   12      0.137D-09      0.891D-11       -76.00864011     75.683188    0.00000    0.84535    0.00000    9    diag
   13      0.136D-10      0.749D-12       -76.00864011     75.683188    0.00000    0.84535    0.00000    0    orth

 Final occupancy:   3   1   1   0

 !RHF STATE 1.1 Energy                -76.008640112706
 Nuclear energy                         9.15017589
 One-electron energy                 -123.00041023
 Two-electron energy                   37.84159422
 Virial quotient                       -1.00066605
 !RHF STATE 1.1 Dipole moment           0.00000000     0.84534919     0.00000000
 Dipole moment /Debye                   0.00000000     2.14852258     0.00000000

 Orbital energies:

         1.1          2.1          3.1          4.1          5.1
    -20.553094    -1.335996    -0.561956     0.214305     1.133236

         1.2          2.2          3.2
     -0.495629     1.169502     2.072979

         1.3          2.3          3.3
     -0.711936     0.303924     1.040478

         1.4
      2.031279

 HOMO      1.2    -0.495629 =     -13.4867eV
 LUMO      4.1     0.214305 =       5.8315eV
 LUMO-HOMO         0.709934 =      19.3183eV


 **********************************************************************************************************************************
 DATASETS  * FILE   NREC   LENGTH (MB)   RECORD NAMES
              1      19       21.59       500      610      700      900      950      970     1000      129      960     1100   
                                          VAR    BASINP    GEOM    SYMINP    ZMAT    AOBASIS   BASIS     P2S    ABASIS      S 
                                         1400     1410     1200     1210     1080     1600     1650     1700     2100   
                                           T        V       H0       H01     AOSYM     SMH    MOLCAS    OPER      RHF  

              2       5        2.79       700     1000      520     2100     5600   
                                         GEOM     BASIS   MCVARS     RHF     GINFO   

 PROGRAMS   *        TOTAL       RHF   CCSD(T)       RHF       INT
 CPU TIMES  *         1.73      0.36      0.06      0.06      0.14
 REAL TIME  *         3.61 SEC
 DISK USED  *        86.02 MB      
 SF USED    *         0.08 MB      
 GA USED    *         0.00 MB       (max)       0.00 MB       (current)
 **********************************************************************************************************************************


 PROGRAM * CCSD (Closed-shell coupled cluster)     Authors: C. Hampel, H.-J. Werner, 1991, M. Deegan, P.J. Knowles, 1992


 Convergence thresholds:  THRVAR = 1.00D-14  THRDEN = 1.00D-10

 CCSD(T)     terms to be evaluated (factor= 1.000)


 Number of core orbitals:           1 (   1   0   0   0 )
 Number of closed-shell orbitals:   4 (   2   1   1   0 )
 Number of external orbitals:      13 (   6   2   4   1 )

 Molecular orbitals read from record     2100.1  Type=RHF/CANONICAL (state 1.1)

 Number of N-1 electron functions:               4
 Number of N-2 electron functions:              10
 Number of singly external CSFs:                18
 Number of doubly external CSFs:               393
 Total number of CSFs:                         412

 Length of J-op  integral file:               0.00 MB
 Length of K-op  integral file:               0.01 MB
 Length of 3-ext integral record:             0.00 MB

 Memory could be reduced to 0.29 Mwords without degradation in triples

 Integral transformation finished. Total CPU:   0.00 sec, npass=  1  Memory used:   0.07 MW

 Reference energy:                    -76.00864011

 MP2 singlet pair energy:              -0.11372516
 MP2 triplet pair energy:              -0.07099917
 MP2 correlation energy:               -0.18472433
 MP2 total energy:                    -76.19336445

 SCS-MP2 correlation energy:           -0.18064746   (PS=  1.200000  PT=  0.333333)
 SCS-MP2 total energy:                -76.18928757

 ITER.      SQ.NORM     CORR.ENERGY   TOTAL ENERGY   ENERGY CHANGE        DEN1      VAR(S)    VAR(P)  DIIS     TIME  TIME/IT
   1      1.05199641    -0.19285600   -76.20149611    -0.00813167    -0.00476297  0.25D-03  0.70D-03  1  1     0.01     0.00
   2      1.05533133    -0.19387826   -76.20251837    -0.00102226    -0.00386732  0.53D-05  0.51D-04  2  2     0.01     0.00
   3      1.05603137    -0.19396829   -76.20260840    -0.00009004    -0.00051998  0.22D-05  0.21D-05  3  3     0.02     0.00
   4      1.05617343    -0.19396664   -76.20260676     0.00000165    -0.00007823  0.10D-06  0.12D-06  4  4     0.02     0.00
   5      1.05620235    -0.19396547   -76.20260558     0.00000118    -0.00001240  0.32D-07  0.57D-08  5  5     0.02     0.00
   6      1.05620623    -0.19396522   -76.20260533     0.00000025     0.00000050  0.28D-08  0.76D-09  6  6     0.02     0.00
   7      1.05620876    -0.19396512   -76.20260524     0.00000009    -0.00000024  0.99D-10  0.52D-10  6  1     0.02     0.00
   8      1.05620916    -0.19396509   -76.20260520     0.00000003    -0.00000003  0.12D-11  0.35D-11  6  2     0.02     0.00
   9      1.05620924    -0.19396508   -76.20260519     0.00000001    -0.00000004  0.60D-13  0.21D-12  6  3     0.03     0.00
  10      1.05620928    -0.19396508   -76.20260519     0.00000000    -0.00000003  0.25D-14  0.63D-14  6  4     0.03     0.00
  11      1.05620928    -0.19396508   -76.20260519     0.00000000    -0.00000000  0.16D-15  0.25D-15  6  5     0.03     0.00
  12      1.05620928    -0.19396508   -76.20260519     0.00000000    -0.00000000  0.46D-17  0.16D-16  6  6     0.03     0.00

 Norm of t1 vector:      0.02266712      S-energy:     0.00000000      T1 diagnostic:  0.00566678
                                                                       D1 diagnostic:  0.01021943

 Doubles amplitudes (print threshold =  0.500E-01):

         I         J         SYM. A    SYM. B    A         B      T(IJ, AB)

         3         3         2         2         1         1     -0.05241907

 Total CPU time for triples:      0.00 sec


 RESULTS
 =======

  Reference energy                    -76.008640112706
  CCSD singlet pair energy             -0.131255547065
  CCSD triplet pair energy             -0.062709532188
  CCSD correlation energy              -0.193965079229

  Triples (T) contribution             -0.001731563077
  Total correlation energy             -0.195696642306

  CCSD total energy                   -76.202605191934
  CCSD[T] energy                      -76.204422616529
  CCSD-T energy                       -76.204298357484
 !CCSD(T) total energy                -76.204336755012

 Timing summary (sec):

 STEP                 CPU(USER)    SYS     CPU(TOT)    WALL
 CCSD iterations         0.03      0.02      0.05      0.05

 Program statistics:

 Available memory in ccsd:               999998800
 Min. memory needed in ccsd:                  3277
 Max. memory used in ccsd:                    3491
 Max. memory used in cckext:                 36036 (12 integral passes)



 **********************************************************************************************************************************
 DATASETS  * FILE   NREC   LENGTH (MB)   RECORD NAMES
              1      20       21.62       500      610      700      900      950      970     1000      129      960     1100   
                                          VAR    BASINP    GEOM    SYMINP    ZMAT    AOBASIS   BASIS     P2S    ABASIS      S 
                                         1400     1410     1200     1210     1080     1600     1650     1700     2100     1380   
                                           T        V       H0       H01     AOSYM     SMH    MOLCAS    OPER      RHF     JKOP   

              2       5        2.79       700     1000      520     2100     5600   
                                         GEOM     BASIS   MCVARS     RHF     GINFO   

 PROGRAMS   *        TOTAL   CCSD(T)   CCSD(T)       RHF       INT
 CPU TIMES  *         1.79      0.06      0.06      0.06      0.14
 REAL TIME  *         3.69 SEC
 DISK USED  *        86.02 MB      
 SF USED    *         0.08 MB      
 GA USED    *         0.00 MB       (max)       0.00 MB       (current)
 **********************************************************************************************************************************
 Starting task   3   Incrementing displacement  2 by  1.   CPU=    0.99 sec, Elapsed=    0.98 sec


 Recomputing integrals since geometry changed


 PROGRAM * SEWARD (Integral evaluation for generally contracted gaussian basis sets)     Author: Roland Lindh, 1990

 Geometry written to block  1 of record 700


 Point group  C2v 



 ATOMIC COORDINATES

 NR  ATOM    CHARGE       X              Y              Z

   1  O       8.00    0.000000000   -0.028571170    0.000000000
   2  H       1.00    0.000000000    1.014234164   -1.475129846
   3  H       1.00    0.000000000    1.014234164    1.475129846

 Bond lengths in Bohr (Angstrom)

 1-2  1.806502429  1-3  1.806502429
     ( 0.955959917)     ( 0.955959917)

 Bond angles

  2-1-3  109.48515197

 NUCLEAR CHARGE:                   10
 NUMBER OF PRIMITIVE AOS:          36
 NUMBER OF SYMMETRY AOS:           35
 NUMBER OF CONTRACTIONS:           18   (   9A1  +   3B1  +   5B2  +   1A2  )
 NUMBER OF CORE ORBITALS:           1   (   1A1  +   0B1  +   0B2  +   0A2  )
 NUMBER OF VALENCE ORBITALS:        6   (   3A1  +   1B1  +   2B2  +   0A2  )


 NUCLEAR REPULSION ENERGY    9.19584692

 Eigenvalues of metric

         1 0.636E-01 0.257E+00 0.428E+00 0.658E+00 0.983E+00 0.100E+01 0.110E+01 0.162E+01
         2 0.498E+00 0.100E+01 0.150E+01
         3 0.111E+00 0.189E+00 0.678E+00 0.114E+01 0.234E+01
         4 0.100E+01


 Contracted 2-electron integrals neglected if value below      1.0D-14
 AO integral compression algorithm  1   Integral accuracy      1.0D-14

     0.786 MB (compressed) written to integral file (100.0%)

     Node minimum: 0.262 MB, node maximum: 0.262 MB


 NUMBER OF SORTED TWO-ELECTRON INTEGRALS:       1611.     BUFFER LENGTH:  32768
 NUMBER OF SEGMENTS:   1  SEGMENT LENGTH:       1611      RECORD LENGTH: 524288

 Memory used in sort:       0.56 MW

 SORT1 READ        6192. AND WROTE        1347. INTEGRALS IN      1 RECORDS. CPU TIME:     0.00 SEC, REAL TIME:     0.00 SEC
 SORT2 READ        3938. AND WROTE        4885. INTEGRALS IN      3 RECORDS. CPU TIME:     0.00 SEC, REAL TIME:     0.01 SEC

 Node minimum:        1508.  Node maximum:        1766. integrals

 OPERATOR DM      FOR CENTER  0  COORDINATES:    0.000000    0.000000    0.000000

 PROGRAM * RHF-SCF (CLOSED SHELL)       Authors: W. Meyer, H.-J. Werner


 NUMBER OF ELECTRONS:       5+    5-
 CONVERGENCE THRESHOLDS:    1.00E-10 (Density)    1.00E-11 (Energy)
 MAX. NUMBER OF ITERATIONS:       60
 INTERPOLATION TYPE:            DIIS
 INTERPOLATION STEPS:              2 (START)      1 (STEP)
 LEVEL SHIFTS:                  0.00 (CLOSED)  0.00 (OPEN) 

 Number of closed-shell orbitals:    5 (   3   1   1   0 )


 Molecular orbitals read from record     2100.2  Type=RHF/CANONICAL (state 1.1)

 Molecular orbital dump at record        2100.1

 ITERATION    DDIFF          GRAD             ENERGY        2-EL.EN.            DIPOLE MOMENTS         DIIS   ORB.
    1      0.000D+00      0.000D+00       -76.00867924     75.723420    0.00000    0.83254    0.00000    0    start
    2      0.000D+00      0.817D-03       -76.00869567     75.776338    0.00000    0.83578    0.00000    1    diag
    3      0.785D-03      0.364D-03       -76.00869812     75.754783    0.00000    0.83572    0.00000    2    diag
    4      0.290D-03      0.102D-03       -76.00869854     75.760270    0.00000    0.83673    0.00000    3    diag
    5      0.127D-03      0.211D-04       -76.00869856     75.760069    0.00000    0.83694    0.00000    4    diag
    6      0.404D-04      0.442D-05       -76.00869856     75.760066    0.00000    0.83699    0.00000    5    diag
    7      0.104D-04      0.917D-06       -76.00869856     75.760065    0.00000    0.83700    0.00000    6    diag
    8      0.186D-05      0.126D-06       -76.00869856     75.760066    0.00000    0.83700    0.00000    7    orth
    9      0.198D-06      0.179D-07       -76.00869856     75.760066    0.00000    0.83700    0.00000    8    diag
   10      0.301D-07      0.222D-08       -76.00869856     75.760066    0.00000    0.83700    0.00000    9    diag
   11      0.524D-08      0.140D-09       -76.00869856     75.760066    0.00000    0.83700    0.00000    9    diag
   12      0.212D-09      0.207D-10       -76.00869856     75.760066    0.00000    0.83700    0.00000    9    diag
   13      0.230D-10      0.159D-11       -76.00869856     75.760066    0.00000    0.83700    0.00000    0    orth

 Final occupancy:   3   1   1   0

 !RHF STATE 1.1 Energy                -76.008698564754
 Nuclear energy                         9.19584692
 One-electron energy                 -123.08457829
 Two-electron energy                   37.88003281
 Virial quotient                       -1.00041604
 !RHF STATE 1.1 Dipole moment           0.00000000     0.83699584     0.00000000
 Dipole moment /Debye                   0.00000000     2.12729188     0.00000000

 Orbital energies:

         1.1          2.1          3.1          4.1          5.1
    -20.551544    -1.337773    -0.560983     0.215547     1.132728

         1.2          2.2          3.2
     -0.495607     1.169741     2.073191

         1.3          2.3          3.3
     -0.716349     0.305278     1.047638

         1.4
      2.029303

 HOMO      1.2    -0.495607 =     -13.4861eV
 LUMO      4.1     0.215547 =       5.8653eV
 LUMO-HOMO         0.711153 =      19.3515eV


 **********************************************************************************************************************************
 DATASETS  * FILE   NREC   LENGTH (MB)   RECORD NAMES
              1      19       21.59       500      610      700      900      950      970     1000      129      960     1100   
                                          VAR    BASINP    GEOM    SYMINP    ZMAT    AOBASIS   BASIS     P2S    ABASIS      S 
                                         1400     1410     1200     1210     1080     1600     1650     1700     2100   
                                           T        V       H0       H01     AOSYM     SMH    MOLCAS    OPER      RHF  

              2       5        2.79       700     1000      520     2100     5600   
                                         GEOM     BASIS   MCVARS     RHF     GINFO   

 PROGRAMS   *        TOTAL       RHF   CCSD(T)       RHF       INT
 CPU TIMES  *         2.15      0.36      0.06      0.06      0.14
 REAL TIME  *         4.09 SEC
 DISK USED  *        86.02 MB      
 SF USED    *         0.08 MB      
 GA USED    *         0.00 MB       (max)       0.00 MB       (current)
 **********************************************************************************************************************************


 PROGRAM * CCSD (Closed-shell coupled cluster)     Authors: C. Hampel, H.-J. Werner, 1991, M. Deegan, P.J. Knowles, 1992


 Convergence thresholds:  THRVAR = 1.00D-14  THRDEN = 1.00D-10

 CCSD(T)     terms to be evaluated (factor= 1.000)


 Number of core orbitals:           1 (   1   0   0   0 )
 Number of closed-shell orbitals:   4 (   2   1   1   0 )
 Number of external orbitals:      13 (   6   2   4   1 )

 Molecular orbitals read from record     2100.1  Type=RHF/CANONICAL (state 1.1)

 Number of N-1 electron functions:               4
 Number of N-2 electron functions:              10
 Number of singly external CSFs:                18
 Number of doubly external CSFs:               393
 Total number of CSFs:                         412

 Length of J-op  integral file:               0.00 MB
 Length of K-op  integral file:               0.01 MB
 Length of 3-ext integral record:             0.00 MB

 Memory could be reduced to 0.29 Mwords without degradation in triples

 Integral transformation finished. Total CPU:   0.00 sec, npass=  1  Memory used:   0.07 MW

 Reference energy:                    -76.00869856

 MP2 singlet pair energy:              -0.11341670
 MP2 triplet pair energy:              -0.07087746
 MP2 correlation energy:               -0.18429416
 MP2 total energy:                    -76.19299272

 SCS-MP2 correlation energy:           -0.18020157   (PS=  1.200000  PT=  0.333333)
 SCS-MP2 total energy:                -76.18890013

 ITER.      SQ.NORM     CORR.ENERGY   TOTAL ENERGY   ENERGY CHANGE        DEN1      VAR(S)    VAR(P)  DIIS     TIME  TIME/IT
   1      1.05169268    -0.19243067   -76.20112923    -0.00813651    -0.00480737  0.25D-03  0.69D-03  1  1     0.01     0.00
   2      1.05496307    -0.19343432   -76.20213288    -0.00100365    -0.00382466  0.53D-05  0.50D-04  2  2     0.01     0.00
   3      1.05563767    -0.19352270   -76.20222127    -0.00008838    -0.00050566  0.21D-05  0.20D-05  3  3     0.01     0.00
   4      1.05577336    -0.19352081   -76.20221938     0.00000189    -0.00007569  0.95D-07  0.11D-06  4  4     0.01     0.00
   5      1.05580073    -0.19351967   -76.20221824     0.00000114    -0.00001194  0.31D-07  0.54D-08  5  5     0.02     0.00
   6      1.05580435    -0.19351944   -76.20221800     0.00000023     0.00000051  0.27D-08  0.72D-09  6  6     0.02     0.00
   7      1.05580677    -0.19351935   -76.20221791     0.00000009    -0.00000023  0.96D-10  0.50D-10  6  1     0.02     0.00
   8      1.05580717    -0.19351932   -76.20221788     0.00000003    -0.00000004  0.11D-11  0.32D-11  6  2     0.02     0.00
   9      1.05580724    -0.19351931   -76.20221787     0.00000001    -0.00000004  0.56D-13  0.19D-12  6  3     0.03     0.00
  10      1.05580727    -0.19351930   -76.20221787     0.00000000    -0.00000002  0.22D-14  0.59D-14  6  4     0.03     0.00
  11      1.05580727    -0.19351930   -76.20221787     0.00000000    -0.00000000  0.15D-15  0.23D-15  6  5     0.03     0.00
  12      1.05580727    -0.19351930   -76.20221787     0.00000000    -0.00000000  0.43D-17  0.15D-16  6  6     0.03     0.00

 Norm of t1 vector:      0.02236080      S-energy:     0.00000000      T1 diagnostic:  0.00559020
                                                                       D1 diagnostic:  0.01004673

 Doubles amplitudes (print threshold =  0.500E-01):

         I         J         SYM. A    SYM. B    A         B      T(IJ, AB)

         3         3         2         2         1         1     -0.05243031

 Total CPU time for triples:      0.00 sec


 RESULTS
 =======

  Reference energy                    -76.008698564754
  CCSD singlet pair energy             -0.130840477365
  CCSD triplet pair energy             -0.062678826985
  CCSD correlation energy              -0.193519304326

  Triples (T) contribution             -0.001706882362
  Total correlation energy             -0.195226186688

  CCSD total energy                   -76.202217869080
  CCSD[T] energy                      -76.204009824073
  CCSD-T energy                       -76.203886739125
 !CCSD(T) total energy                -76.203924751442

 Timing summary (sec):

 STEP                 CPU(USER)    SYS     CPU(TOT)    WALL
 CCSD iterations         0.03      0.01      0.04      0.03

 Program statistics:

 Available memory in ccsd:               999998800
 Min. memory needed in ccsd:                  3277
 Max. memory used in ccsd:                    3491
 Max. memory used in cckext:                 36036 (12 integral passes)



 **********************************************************************************************************************************
 DATASETS  * FILE   NREC   LENGTH (MB)   RECORD NAMES
              1      20       21.62       500      610      700      900      950      970     1000      129      960     1100   
                                          VAR    BASINP    GEOM    SYMINP    ZMAT    AOBASIS   BASIS     P2S    ABASIS      S 
                                         1400     1410     1200     1210     1080     1600     1650     1700     2100     1380   
                                           T        V       H0       H01     AOSYM     SMH    MOLCAS    OPER      RHF     JKOP   

              2       5        2.79       700     1000      520     2100     5600   
                                         GEOM     BASIS   MCVARS     RHF     GINFO   

 PROGRAMS   *        TOTAL   CCSD(T)   CCSD(T)       RHF       INT
 CPU TIMES  *         2.22      0.07      0.06      0.06      0.14
 REAL TIME  *         4.17 SEC
 DISK USED  *        86.02 MB      
 SF USED    *         0.08 MB      
 GA USED    *         0.00 MB       (max)       0.00 MB       (current)
 **********************************************************************************************************************************
 Starting task   4   Incrementing displacement  2 by -1.   CPU=    1.48 sec, Elapsed=    1.46 sec


 Recomputing integrals since geometry changed


 PROGRAM * SEWARD (Integral evaluation for generally contracted gaussian basis sets)     Author: Roland Lindh, 1990

 Geometry written to block  1 of record 700


 Point group  C2v 



 ATOMIC COORDINATES

 NR  ATOM    CHARGE       X              Y              Z

   1  O       8.00    0.000000000   -0.040970751    0.000000000
   2  H       1.00    0.000000000    1.020433954   -1.484332443
   3  H       1.00    0.000000000    1.020433954    1.484332443

 Bond lengths in Bohr (Angstrom)

 1-2  1.824780192  1-3  1.824780192
     ( 0.965632093)     ( 0.965632093)

 Bond angles

  2-1-3  108.86499770

 NUCLEAR CHARGE:                   10
 NUMBER OF PRIMITIVE AOS:          36
 NUMBER OF SYMMETRY AOS:           35
 NUMBER OF CONTRACTIONS:           18   (   9A1  +   3B1  +   5B2  +   1A2  )
 NUMBER OF CORE ORBITALS:           1   (   1A1  +   0B1  +   0B2  +   0A2  )
 NUMBER OF VALENCE ORBITALS:        6   (   3A1  +   1B1  +   2B2  +   0A2  )


 NUCLEAR REPULSION ENERGY    9.10503111

 Eigenvalues of metric

         1 0.650E-01 0.261E+00 0.427E+00 0.662E+00 0.983E+00 0.100E+01 0.110E+01 0.162E+01
         2 0.498E+00 0.100E+01 0.150E+01
         3 0.114E+00 0.193E+00 0.681E+00 0.114E+01 0.234E+01
         4 0.100E+01


 Contracted 2-electron integrals neglected if value below      1.0D-14
 AO integral compression algorithm  1   Integral accuracy      1.0D-14

     0.786 MB (compressed) written to integral file (100.0%)

     Node minimum: 0.262 MB, node maximum: 0.262 MB


 NUMBER OF SORTED TWO-ELECTRON INTEGRALS:       1611.     BUFFER LENGTH:  32768
 NUMBER OF SEGMENTS:   1  SEGMENT LENGTH:       1611      RECORD LENGTH: 524288

 Memory used in sort:       0.56 MW

 SORT1 READ        6192. AND WROTE        1347. INTEGRALS IN      1 RECORDS. CPU TIME:     0.00 SEC, REAL TIME:     0.00 SEC
 SORT2 READ        3938. AND WROTE        4885. INTEGRALS IN      3 RECORDS. CPU TIME:     0.00 SEC, REAL TIME:     0.00 SEC

 Node minimum:        1508.  Node maximum:        1766. integrals

 OPERATOR DM      FOR CENTER  0  COORDINATES:    0.000000    0.000000    0.000000

 PROGRAM * RHF-SCF (CLOSED SHELL)       Authors: W. Meyer, H.-J. Werner


 NUMBER OF ELECTRONS:       5+    5-
 CONVERGENCE THRESHOLDS:    1.00E-10 (Density)    1.00E-11 (Energy)
 MAX. NUMBER OF ITERATIONS:       60
 INTERPOLATION TYPE:            DIIS
 INTERPOLATION STEPS:              2 (START)      1 (STEP)
 LEVEL SHIFTS:                  0.00 (CLOSED)  0.00 (OPEN) 

 Number of closed-shell orbitals:    5 (   3   1   1   0 )


 Molecular orbitals read from record     2100.2  Type=RHF/CANONICAL (state 1.1)

 Molecular orbital dump at record        2100.1

 ITERATION    DDIFF          GRAD             ENERGY        2-EL.EN.            DIPOLE MOMENTS         DIIS   ORB.
    1      0.000D+00      0.000D+00       -76.00823244     75.652515    0.00000    0.84927    0.00000    0    start
    2      0.000D+00      0.811D-03       -76.00824870     75.599713    0.00000    0.84596    0.00000    1    diag
    3      0.782D-03      0.364D-03       -76.00825114     75.621301    0.00000    0.84606    0.00000    2    diag
    4      0.290D-03      0.102D-03       -76.00825156     75.615759    0.00000    0.84502    0.00000    3    diag
    5      0.128D-03      0.214D-04       -76.00825159     75.615974    0.00000    0.84481    0.00000    4    diag
    6      0.404D-04      0.451D-05       -76.00825159     75.615977    0.00000    0.84475    0.00000    5    diag
    7      0.106D-04      0.944D-06       -76.00825159     75.615978    0.00000    0.84475    0.00000    6    diag
    8      0.192D-05      0.130D-06       -76.00825159     75.615977    0.00000    0.84475    0.00000    7    orth
    9      0.208D-06      0.186D-07       -76.00825159     75.615977    0.00000    0.84475    0.00000    8    diag
   10      0.320D-07      0.230D-08       -76.00825159     75.615977    0.00000    0.84475    0.00000    9    diag
   11      0.535D-08      0.140D-09       -76.00825159     75.615977    0.00000    0.84475    0.00000    9    diag
   12      0.211D-09      0.209D-10       -76.00825159     75.615977    0.00000    0.84475    0.00000    9    diag
   13      0.232D-10      0.164D-11       -76.00825159     75.615977    0.00000    0.84475    0.00000    0    orth

 Final occupancy:   3   1   1   0

 !RHF STATE 1.1 Energy                -76.008251590410
 Nuclear energy                         9.10503111
 One-electron energy                 -122.92127115
 Two-electron energy                   37.80798844
 Virial quotient                       -1.00091605
 !RHF STATE 1.1 Dipole moment           0.00000000     0.84475051     0.00000000
 Dipole moment /Debye                   0.00000000     2.14700100     0.00000000

 Orbital energies:

         1.1          2.1          3.1          4.1          5.1
    -20.553822    -1.333376    -0.560493     0.213190     1.125900

         1.2          2.2          3.2
     -0.495160     1.169626     2.074128

         1.3          2.3          3.3
     -0.709796     0.302731     1.039773

         1.4
      2.032245

 HOMO      1.2    -0.495160 =     -13.4740eV
 LUMO      4.1     0.213190 =       5.8012eV
 LUMO-HOMO         0.708349 =      19.2752eV


 **********************************************************************************************************************************
 DATASETS  * FILE   NREC   LENGTH (MB)   RECORD NAMES
              1      19       21.59       500      610      700      900      950      970     1000      129      960     1100   
                                          VAR    BASINP    GEOM    SYMINP    ZMAT    AOBASIS   BASIS     P2S    ABASIS      S 
                                         1400     1410     1200     1210     1080     1600     1650     1700     2100   
                                           T        V       H0       H01     AOSYM     SMH    MOLCAS    OPER      RHF  

              2       5        2.79       700     1000      520     2100     5600   
                                         GEOM     BASIS   MCVARS     RHF     GINFO   

 PROGRAMS   *        TOTAL       RHF   CCSD(T)       RHF       INT
 CPU TIMES  *         2.58      0.36      0.06      0.06      0.14
 REAL TIME  *         4.58 SEC
 DISK USED  *        86.02 MB      
 SF USED    *         0.08 MB      
 GA USED    *         0.00 MB       (max)       0.00 MB       (current)
 **********************************************************************************************************************************


 PROGRAM * CCSD (Closed-shell coupled cluster)     Authors: C. Hampel, H.-J. Werner, 1991, M. Deegan, P.J. Knowles, 1992


 Convergence thresholds:  THRVAR = 1.00D-14  THRDEN = 1.00D-10

 CCSD(T)     terms to be evaluated (factor= 1.000)


 Number of core orbitals:           1 (   1   0   0   0 )
 Number of closed-shell orbitals:   4 (   2   1   1   0 )
 Number of external orbitals:      13 (   6   2   4   1 )

 Molecular orbitals read from record     2100.1  Type=RHF/CANONICAL (state 1.1)

 Number of N-1 electron functions:               4
 Number of N-2 electron functions:              10
 Number of singly external CSFs:                18
 Number of doubly external CSFs:               393
 Total number of CSFs:                         412

 Length of J-op  integral file:               0.00 MB
 Length of K-op  integral file:               0.01 MB
 Length of 3-ext integral record:             0.00 MB

 Memory could be reduced to 0.29 Mwords without degradation in triples

 Integral transformation finished. Total CPU:   0.01 sec, npass=  1  Memory used:   0.07 MW

 Reference energy:                    -76.00825159

 MP2 singlet pair energy:              -0.11398900
 MP2 triplet pair energy:              -0.07111076
 MP2 correlation energy:               -0.18509976
 MP2 total energy:                    -76.19335135

 SCS-MP2 correlation energy:           -0.18103350   (PS=  1.200000  PT=  0.333333)
 SCS-MP2 total energy:                -76.18928509

 ITER.      SQ.NORM     CORR.ENERGY   TOTAL ENERGY   ENERGY CHANGE        DEN1      VAR(S)    VAR(P)  DIIS     TIME  TIME/IT
   1      1.05225671    -0.19322953   -76.20148112    -0.00812977    -0.00472869  0.25D-03  0.71D-03  1  1     0.01     0.00
   2      1.05564704    -0.19426804   -76.20251963    -0.00103851    -0.00390269  0.54D-05  0.53D-04  2  2     0.01     0.00
   3      1.05636934    -0.19435967   -76.20261126    -0.00009163    -0.00053228  0.22D-05  0.22D-05  3  3     0.01     0.00
   4      1.05651730    -0.19435822   -76.20260981     0.00000145    -0.00008047  0.11D-06  0.12D-06  4  4     0.01     0.00
   5      1.05654792    -0.19435701   -76.20260860     0.00000121    -0.00001286  0.35D-07  0.61D-08  5  5     0.02     0.00
   6      1.05655217    -0.19435675   -76.20260834     0.00000027     0.00000050  0.30D-08  0.82D-09  6  6     0.02     0.00
   7      1.05655484    -0.19435665   -76.20260824     0.00000010    -0.00000025  0.10D-09  0.56D-10  6  1     0.02     0.00
   8      1.05655526    -0.19435662   -76.20260821     0.00000003    -0.00000003  0.13D-11  0.39D-11  6  2     0.02     0.00
   9      1.05655534    -0.19435661   -76.20260820     0.00000001    -0.00000004  0.65D-13  0.23D-12  6  3     0.02     0.00
  10      1.05655537    -0.19435661   -76.20260820     0.00000000    -0.00000003  0.28D-14  0.69D-14  6  4     0.03     0.00
  11      1.05655538    -0.19435661   -76.20260820     0.00000000    -0.00000000  0.18D-15  0.27D-15  6  5     0.03     0.00
  12      1.05655538    -0.19435661   -76.20260820     0.00000000    -0.00000000  0.55D-17  0.18D-16  6  6     0.03     0.00

 Norm of t1 vector:      0.02292818      S-energy:     0.00000000      T1 diagnostic:  0.00573205
                                                                       D1 diagnostic:  0.01041128

 Doubles amplitudes (print threshold =  0.500E-01):

         I         J         SYM. A    SYM. B    A         B      T(IJ, AB)

         3         3         2         2         1         1     -0.05241762

 Total CPU time for triples:      0.00 sec


 RESULTS
 =======

  Reference energy                    -76.008251590410
  CCSD singlet pair energy             -0.131611997242
  CCSD triplet pair energy             -0.062744608312
  CCSD correlation energy              -0.194356605530

  Triples (T) contribution             -0.001750793461
  Total correlation energy             -0.196107398991

  CCSD total energy                   -76.202608195940
  CCSD[T] energy                      -76.204445572732
  CCSD-T energy                       -76.204320251710
 !CCSD(T) total energy                -76.204358989401

 Timing summary (sec):

 STEP                 CPU(USER)    SYS     CPU(TOT)    WALL
 Transformation          0.01      0.00      0.01      0.01
 CCSD iterations         0.02      0.02      0.04      0.03

 Program statistics:

 Available memory in ccsd:               999998800
 Min. memory needed in ccsd:                  3277
 Max. memory used in ccsd:                    3491
 Max. memory used in cckext:                 36036 (12 integral passes)



 **********************************************************************************************************************************
 DATASETS  * FILE   NREC   LENGTH (MB)   RECORD NAMES
              1      20       21.62       500      610      700      900      950      970     1000      129      960     1100   
                                          VAR    BASINP    GEOM    SYMINP    ZMAT    AOBASIS   BASIS     P2S    ABASIS      S 
                                         1400     1410     1200     1210     1080     1600     1650     1700     2100     1380   
                                           T        V       H0       H01     AOSYM     SMH    MOLCAS    OPER      RHF     JKOP   

              2       5        2.79       700     1000      520     2100     5600   
                                         GEOM     BASIS   MCVARS     RHF     GINFO   

 PROGRAMS   *        TOTAL   CCSD(T)   CCSD(T)       RHF       INT
 CPU TIMES  *         2.65      0.06      0.06      0.06      0.14
 REAL TIME  *         4.66 SEC
 DISK USED  *        86.02 MB      
 SF USED    *         0.08 MB      
 GA USED    *         0.00 MB       (max)       0.00 MB       (current)
 **********************************************************************************************************************************
 Numerical gradient completed. CPU-time:     1.97 sec, Elapsed:     1.95 sec

 Numerical gradient for CCSD(T)

 Total Energy           -76.20418682  Dipole moments:    0.000000    0.000000    0.000000

 Atom          dE/dx               dE/dy               dE/dz                  d2E/dx2             d2E/dy2             d2E/dz2
   1         0.000000000         0.021902045        -0.000000000            0.000000000         0.000000000         0.000000000
   2         0.000000000        -0.010951023         0.001460115            0.000000000         0.000000000         0.000000000
   3         0.000000000        -0.010951023        -0.001460115            0.000000000         0.000000000         0.000000000
 Reading points  1 to  1 from record 700.2,  wavefunction type=CCSD(T)         

 Making model hessian for cartesian coordinates
 No hessian update for point  1

 Entering Rational Function Geometry Optimization

 Optimization point  1

 Variable                      Last           Current        Next           Gradient       Hessian
 E(CCSD(T)) / Hartree        0.00000000   -76.20418682   -76.20471399
 GX1 / ANGSTROM              0.00000000     0.00000000     0.00000000     0.00000000    -0.00000000
 GY1 / ANGSTROM              0.00000000    -0.01840000    -0.03641854     0.04138887    -0.00000000
 GZ1 / ANGSTROM              0.00000000     0.00000000     0.00000000     0.00000000     0.00000000
 GX2 / ANGSTROM              0.00000000     0.00000000     0.00000000     0.00000000     0.00000000
 GY2 / ANGSTROM              0.00000000     0.53835000     0.54735927    -0.02069443     0.00000000
 GZ2 / ANGSTROM              0.00000000    -0.78304000    -0.77085175     0.00275922     0.00000000
 GX3 / ANGSTROM              0.00000000     0.00000000     0.00000000     0.00000000     0.86661469
 GY3 / ANGSTROM              0.00000000     0.53835000     0.54735927    -0.02069443     4.52204440
 GZ3 / ANGSTROM              0.00000000     0.78304000     0.77085175    -0.00275922     5.80833009
 Convergence:                0.00000000  (line search)     0.05291599     0.02690378  (total)

 Geometry written to block  2 of record 700


 Recomputing integrals since geometry changed


 PROGRAM * SEWARD (Integral evaluation for generally contracted gaussian basis sets)     Author: Roland Lindh, 1990

 Geometry written to block  2 of record 700


 Point group  C2v 



 ATOMIC COORDINATES

 NR  ATOM    CHARGE       X              Y              Z

   1  O       8.00    0.000000000   -0.068821060    0.000000000
   2  H       1.00    0.000000000    1.034359109   -1.456698689
   3  H       1.00    0.000000000    1.034359109    1.456698689

 Bond lengths in Bohr (Angstrom)

 1-2  1.827286939  1-3  1.827286939
     ( 0.966958606)     ( 0.966958606)

 Bond angles

  2-1-3  105.72559371

 NUCLEAR CHARGE:                   10
 NUMBER OF PRIMITIVE AOS:          36
 NUMBER OF SYMMETRY AOS:           35
 NUMBER OF CONTRACTIONS:           18   (   9A1  +   3B1  +   5B2  +   1A2  )
 NUMBER OF CORE ORBITALS:           1   (   1A1  +   0B1  +   0B2  +   0A2  )
 NUMBER OF VALENCE ORBITALS:        6   (   3A1  +   1B1  +   2B2  +   0A2  )


 NUCLEAR REPULSION ENERGY    9.09939269

 Eigenvalues of metric

         1 0.643E-01 0.261E+00 0.424E+00 0.667E+00 0.983E+00 0.100E+01 0.109E+01 0.163E+01
         2 0.498E+00 0.100E+01 0.150E+01
         3 0.116E+00 0.193E+00 0.677E+00 0.115E+01 0.232E+01
         4 0.100E+01


 Contracted 2-electron integrals neglected if value below      1.0D-14
 AO integral compression algorithm  1   Integral accuracy      1.0D-14

     0.786 MB (compressed) written to integral file (100.0%)

     Node minimum: 0.262 MB, node maximum: 0.262 MB


 NUMBER OF SORTED TWO-ELECTRON INTEGRALS:       1611.     BUFFER LENGTH:  32768
 NUMBER OF SEGMENTS:   1  SEGMENT LENGTH:       1611      RECORD LENGTH: 524288

 Memory used in sort:       0.56 MW

 SORT1 READ        6192. AND WROTE        1347. INTEGRALS IN      1 RECORDS. CPU TIME:     0.01 SEC, REAL TIME:     0.00 SEC
 SORT2 READ        3938. AND WROTE        4885. INTEGRALS IN      3 RECORDS. CPU TIME:     0.00 SEC, REAL TIME:     0.00 SEC

 Node minimum:        1508.  Node maximum:        1766. integrals

 OPERATOR DM      FOR CENTER  0  COORDINATES:    0.000000    0.000000    0.000000

 PROGRAM * RHF-SCF (CLOSED SHELL)       Authors: W. Meyer, H.-J. Werner


 NUMBER OF ELECTRONS:       5+    5-
 CONVERGENCE THRESHOLDS:    1.00E-10 (Density)    1.00E-11 (Energy)
 MAX. NUMBER OF ITERATIONS:       60
 INTERPOLATION TYPE:            DIIS
 INTERPOLATION STEPS:              2 (START)      1 (STEP)
 LEVEL SHIFTS:                  0.00 (CLOSED)  0.00 (OPEN) 

 Number of closed-shell orbitals:    5 (   3   1   1   0 )


 Molecular orbitals read from record     2100.2  Type=RHF/CANONICAL (state 1.1)

 Molecular orbital dump at record        2100.2

 ITERATION    DDIFF          GRAD             ENERGY        2-EL.EN.            DIPOLE MOMENTS         DIIS   ORB.
    1      0.000D+00      0.000D+00       -76.00839864     75.640073    0.00000    0.88568    0.00000    0    start
    2      0.000D+00      0.231D-02       -76.00854562     75.559994    0.00000    0.87111    0.00000    1    diag
    3      0.215D-02      0.741D-03       -76.00855896     75.602174    0.00000    0.87080    0.00000    2    diag
    4      0.757D-03      0.312D-03       -76.00856176     75.582435    0.00000    0.86846    0.00000    3    diag
    5      0.311D-03      0.668D-04       -76.00856199     75.583768    0.00000    0.86781    0.00000    4    diag
    6      0.112D-03      0.138D-04       -76.00856200     75.583719    0.00000    0.86766    0.00000    5    diag
    7      0.325D-04      0.267D-05       -76.00856200     75.583721    0.00000    0.86765    0.00000    6    diag
    8      0.572D-05      0.424D-06       -76.00856200     75.583717    0.00000    0.86765    0.00000    7    orth
    9      0.642D-06      0.470D-07       -76.00856200     75.583717    0.00000    0.86765    0.00000    8    diag
   10      0.738D-07      0.765D-08       -76.00856200     75.583717    0.00000    0.86765    0.00000    9    diag
   11      0.164D-07      0.423D-09       -76.00856200     75.583717    0.00000    0.86765    0.00000    9    diag
   12      0.792D-09      0.496D-10       -76.00856200     75.583717    0.00000    0.86765    0.00000    9    diag
   13      0.596D-10      0.377D-11       -76.00856200     75.583717    0.00000    0.86765    0.00000    0    orth

 Final occupancy:   3   1   1   0

 !RHF STATE 1.1 Energy                -76.008562003286
 Nuclear energy                         9.09939269
 One-electron energy                 -122.89981340
 Two-electron energy                   37.79185871
 Virial quotient                       -1.00093117
 !RHF STATE 1.1 Dipole moment           0.00000000     0.86765482     0.00000000
 Dipole moment /Debye                   0.00000000     2.20521414     0.00000000

 Orbital energies:

         1.1          2.1          3.1          4.1          5.1
    -20.556045    -1.335329    -0.566678     0.212637     1.144284

         1.2          2.2          3.2
     -0.496408     1.168683     2.070708

         1.3          2.3          3.3
     -0.703588     0.302023     1.023774

         1.4
      2.034949

 HOMO      1.2    -0.496408 =     -13.5079eV
 LUMO      4.1     0.212637 =       5.7862eV
 LUMO-HOMO         0.709045 =      19.2941eV


 **********************************************************************************************************************************
 DATASETS  * FILE   NREC   LENGTH (MB)   RECORD NAMES
              1      18       19.10       500      610      700      900      950      970     1000      129      960     1100   
                                          VAR    BASINP    GEOM    SYMINP    ZMAT    AOBASIS   BASIS     P2S    ABASIS      S 
                                         1400     1410     1200     1210     1080     1600     1650     1700   
                                           T        V       H0       H01     AOSYM     SMH    MOLCAS    OPER   

              2       5        2.79       700     1000      520     2100     5600   
                                         GEOM     BASIS   MCVARS     RHF     GINFO   

 PROGRAMS   *        TOTAL       RHF   CCSD(T)       RHF       INT
 CPU TIMES  *         3.02      0.37      0.06      0.06      0.14
 REAL TIME  *         5.07 SEC
 DISK USED  *        86.02 MB      
 SF USED    *         0.08 MB      
 GA USED    *         0.00 MB       (max)       0.00 MB       (current)
 **********************************************************************************************************************************


 PROGRAM * CCSD (Closed-shell coupled cluster)     Authors: C. Hampel, H.-J. Werner, 1991, M. Deegan, P.J. Knowles, 1992


 Convergence thresholds:  THRVAR = 1.00D-14  THRDEN = 1.00D-10

 CCSD(T)     terms to be evaluated (factor= 1.000)


 Number of core orbitals:           1 (   1   0   0   0 )
 Number of closed-shell orbitals:   4 (   2   1   1   0 )
 Number of external orbitals:      13 (   6   2   4   1 )

 Molecular orbitals read from record     2100.2  Type=RHF/CANONICAL (state 1.1)

 Number of N-1 electron functions:               4
 Number of N-2 electron functions:              10
 Number of singly external CSFs:                18
 Number of doubly external CSFs:               393
 Total number of CSFs:                         412

 Length of J-op  integral file:               0.00 MB
 Length of K-op  integral file:               0.01 MB
 Length of 3-ext integral record:             0.00 MB

 Memory could be reduced to 0.29 Mwords without degradation in triples

 Integral transformation finished. Total CPU:   0.00 sec, npass=  1  Memory used:   0.07 MW

 Reference energy:                    -76.00856200

 MP2 singlet pair energy:              -0.11415422
 MP2 triplet pair energy:              -0.07116309
 MP2 correlation energy:               -0.18531731
 MP2 total energy:                    -76.19387932

 SCS-MP2 correlation energy:           -0.18126432   (PS=  1.200000  PT=  0.333333)
 SCS-MP2 total energy:                -76.18982633

 ITER.      SQ.NORM     CORR.ENERGY   TOTAL ENERGY   ENERGY CHANGE        DEN1      VAR(S)    VAR(P)  DIIS     TIME  TIME/IT
   1      1.05242191    -0.19343501   -76.20199702    -0.00811770    -0.00469092  0.26D-03  0.72D-03  1  1     0.01     0.00
   2      1.05584839    -0.19448260   -76.20304460    -0.00104759    -0.00392817  0.54D-05  0.54D-04  2  2     0.01     0.00
   3      1.05658545    -0.19457489   -76.20313690    -0.00009229    -0.00054086  0.23D-05  0.22D-05  3  3     0.02     0.00
   4      1.05673630    -0.19457360   -76.20313560     0.00000129    -0.00008187  0.10D-06  0.13D-06  4  4     0.02     0.00
   5      1.05676692    -0.19457237   -76.20313437     0.00000124    -0.00001296  0.33D-07  0.60D-08  5  5     0.02     0.00
   6      1.05677097    -0.19457209   -76.20313409     0.00000027     0.00000048  0.28D-08  0.78D-09  6  6     0.02     0.00
   7      1.05677355    -0.19457200   -76.20313400     0.00000009    -0.00000025  0.10D-09  0.54D-10  6  1     0.02     0.00
   8      1.05677395    -0.19457197   -76.20313397     0.00000003    -0.00000003  0.14D-11  0.38D-11  6  2     0.02     0.00
   9      1.05677403    -0.19457196   -76.20313396     0.00000001    -0.00000004  0.65D-13  0.23D-12  6  3     0.03     0.00
  10      1.05677407    -0.19457195   -76.20313396     0.00000000    -0.00000003  0.11D-14  0.44D-14  6  6     0.03     0.00
  11      1.05677407    -0.19457195   -76.20313396     0.00000000    -0.00000000  0.11D-15  0.33D-15  6  4     0.03     0.00
  12      1.05677407    -0.19457195   -76.20313396     0.00000000     0.00000000  0.64D-17  0.19D-16  6  5     0.03     0.00
[...]

 Norm of t1 vector:      0.02371855      S-energy:     0.00000000      T1 diagnostic:  0.00592964
                                                                       D1 diagnostic:  0.01070251

 Doubles amplitudes (print threshold =  0.500E-01):

         I         J         SYM. A    SYM. B    A         B      T(IJ, AB)

         3         3         2         2         1         1     -0.05236667

 Total CPU time for triples:      0.00 sec


 RESULTS
 =======

  Reference energy                    -76.007687807021
  CCSD singlet pair energy             -0.132644472764
  CCSD triplet pair energy             -0.062806842719
  CCSD correlation energy              -0.195451315459

  Triples (T) contribution             -0.001820612836
  Total correlation energy             -0.197271928296

  CCSD total energy                   -76.203139122481
  CCSD[T] energy                      -76.205048777499
  CCSD-T energy                       -76.204919692006
 !CCSD(T) total energy                -76.204959735317

 Timing summary (sec):

 STEP                 CPU(USER)    SYS     CPU(TOT)    WALL
 Transformation          0.01      0.00      0.01      0.01
 CCSD iterations         0.03      0.02      0.05      0.04

 Program statistics:

 Available memory in ccsd:               999998800
 Min. memory needed in ccsd:                  3277
 Max. memory used in ccsd:                    3491
 Max. memory used in cckext:                 36036 (12 integral passes)



 **********************************************************************************************************************************
 DATASETS  * FILE   NREC   LENGTH (MB)   RECORD NAMES
              1      20       21.62       500      610      700      900      950      970     1000      129      960     1100   
                                          VAR    BASINP    GEOM    SYMINP    ZMAT    AOBASIS   BASIS     P2S    ABASIS      S 
                                         1400     1410     1200     1210     1080     1600     1650     1700     2100     1380   
                                           T        V       H0       H01     AOSYM     SMH    MOLCAS    OPER      RHF     JKOP   

              2       5        2.79       700     1000      520     2100     5600   
                                         GEOM     BASIS   MCVARS     RHF     GINFO   

 PROGRAMS   *        TOTAL   CCSD(T)   CCSD(T)       RHF       INT
 CPU TIMES  *        12.85      0.07      0.06      0.06      0.14
 REAL TIME  *        15.75 SEC
 DISK USED  *        86.02 MB      
 SF USED    *         0.08 MB      
 GA USED    *         0.00 MB       (max)       0.00 MB       (current)
 **********************************************************************************************************************************
 Numerical gradient completed. CPU-time:     1.99 sec, Elapsed:     1.99 sec

 Numerical gradient for CCSD(T)

 Total Energy           -76.20500288  Dipole moments:    0.000000    0.000000    0.000000

 Atom          dE/dx               dE/dy               dE/dz                  d2E/dx2             d2E/dy2             d2E/dz2
   1         0.000000000         0.000030161         0.000000000            0.000000000         0.000000000         0.000000000
   2         0.000000000        -0.000015080         0.000028722            0.000000000         0.000000000         0.000000000
   3        -0.000000000        -0.000015080        -0.000028722            0.000000000         0.000000000         0.000000000
 Reading points  1 to  4 from record 700.2,  wavefunction type=CCSD(T)         

 Making model hessian for cartesian coordinates
 BFGS update of hessian using  3 points

 Entering Rational Function Geometry Optimization

 Optimization point  4

 Variable                      Last           Current        Next           Gradient       Hessian
 E(CCSD(T)) / Hartree      -76.20500253   -76.20500288   -76.20500288
 GX1 / ANGSTROM              0.00000000     0.00000000     0.00000000     0.00000000    -0.00000000
 GY1 / ANGSTROM             -0.04632403    -0.04580857    -0.04581065     0.00005700    -0.00000000
 GZ1 / ANGSTROM              0.00000000     0.00000000    -0.00000000     0.00000000     0.00000000
 GX2 / ANGSTROM              0.00000000     0.00000000     0.00000000     0.00000000     0.00000000
 GY2 / ANGSTROM              0.55231202     0.55205428     0.55205532    -0.00002850     0.00000000
 GZ2 / ANGSTROM             -0.76487115    -0.76541063    -0.76544386     0.00005428     0.00000000
 GX3 / ANGSTROM              0.00000000     0.00000000     0.00000000     0.00000000     0.77076420
 GY3 / ANGSTROM              0.55231202     0.55205428     0.55205532    -0.00002850     4.57835995
 GZ3 / ANGSTROM              0.76487115     0.76541063     0.76544386    -0.00005428     5.43636496
 Convergence:                0.00000000  (line search)     0.00008893     0.00005490  (total)

 Geometry written to block  5 of record 700


 Recomputing integrals since geometry changed


 PROGRAM * SEWARD (Integral evaluation for generally contracted gaussian basis sets)     Author: Roland Lindh, 1990

 Geometry written to block  5 of record 700


 Point group  C2v 



 ATOMIC COORDINATES

 NR  ATOM    CHARGE       X              Y              Z

   1  O       8.00    0.000000000   -0.086569575    0.000000000
   2  H       1.00    0.000000000    1.043233366   -1.446479260
   3  H       1.00    0.000000000    1.043233366    1.446479260

 Bond lengths in Bohr (Angstrom)

 1-2  1.835417374  1-3  1.835417374
     ( 0.971261047)     ( 0.971261047)

 Bond angles

  2-1-3  104.01527672

 NUCLEAR CHARGE:                   10
 NUMBER OF PRIMITIVE AOS:          36
 NUMBER OF SYMMETRY AOS:           35
 NUMBER OF CONTRACTIONS:           18   (   9A1  +   3B1  +   5B2  +   1A2  )
 NUMBER OF CORE ORBITALS:           1   (   1A1  +   0B1  +   0B2  +   0A2  )
 NUMBER OF VALENCE ORBITALS:        6   (   3A1  +   1B1  +   2B2  +   0A2  )


 NUCLEAR REPULSION ENERGY    9.06303017

 Eigenvalues of metric

         1 0.646E-01 0.262E+00 0.423E+00 0.670E+00 0.983E+00 0.100E+01 0.109E+01 0.163E+01
         2 0.498E+00 0.100E+01 0.150E+01
         3 0.118E+00 0.195E+00 0.676E+00 0.115E+01 0.230E+01
         4 0.100E+01


 Contracted 2-electron integrals neglected if value below      1.0D-14
 AO integral compression algorithm  1   Integral accuracy      1.0D-14

     0.786 MB (compressed) written to integral file (100.0%)

     Node minimum: 0.262 MB, node maximum: 0.262 MB


 NUMBER OF SORTED TWO-ELECTRON INTEGRALS:       1611.     BUFFER LENGTH:  32768
 NUMBER OF SEGMENTS:   1  SEGMENT LENGTH:       1611      RECORD LENGTH: 524288

 Memory used in sort:       0.56 MW

 SORT1 READ        6192. AND WROTE        1347. INTEGRALS IN      1 RECORDS. CPU TIME:     0.00 SEC, REAL TIME:     0.00 SEC
 SORT2 READ        3938. AND WROTE        4885. INTEGRALS IN      3 RECORDS. CPU TIME:     0.00 SEC, REAL TIME:     0.00 SEC

 Node minimum:        1508.  Node maximum:        1766. integrals

 OPERATOR DM      FOR CENTER  0  COORDINATES:    0.000000    0.000000    0.000000

 PROGRAM * RHF-SCF (CLOSED SHELL)       Authors: W. Meyer, H.-J. Werner


 NUMBER OF ELECTRONS:       5+    5-
 CONVERGENCE THRESHOLDS:    1.00E-10 (Density)    1.00E-11 (Energy)
 MAX. NUMBER OF ITERATIONS:       60
 INTERPOLATION TYPE:            DIIS
 INTERPOLATION STEPS:              2 (START)      1 (STEP)
 LEVEL SHIFTS:                  0.00 (CLOSED)  0.00 (OPEN) 

 Number of closed-shell orbitals:    5 (   3   1   1   0 )


 Molecular orbitals read from record     2100.2  Type=RHF/CANONICAL (state 1.1)

 Molecular orbital dump at record        2100.2

 ITERATION    DDIFF          GRAD             ENERGY        2-EL.EN.            DIPOLE MOMENTS         DIIS   ORB.
    1      0.000D+00      0.000D+00       -76.00819550     75.514848    0.00000    0.88105    0.00000    0    start
    2      0.000D+00      0.483D-05       -76.00819550     75.514563    0.00000    0.88104    0.00000    1    diag
    3      0.396D-05      0.186D-05       -76.00819550     75.514683    0.00000    0.88104    0.00000    2    diag
    4      0.153D-05      0.541D-06       -76.00819550     75.514650    0.00000    0.88104    0.00000    3    diag
    5      0.515D-06      0.118D-06       -76.00819550     75.514652    0.00000    0.88104    0.00000    4    diag
    6      0.174D-06      0.274D-07       -76.00819550     75.514652    0.00000    0.88104    0.00000    5    diag
    7      0.642D-07      0.415D-08       -76.00819550     75.514652    0.00000    0.88104    0.00000    6    diag
    8      0.783D-08      0.608D-09       -76.00819550     75.514652    0.00000    0.88104    0.00000    7    orth
    9      0.112D-08      0.107D-09       -76.00819550     75.514652    0.00000    0.88104    0.00000    8    diag
   10      0.213D-09      0.841D-11       -76.00819550     75.514652    0.00000    0.88104    0.00000    9    diag
   11      0.176D-10      0.789D-12       -76.00819550     75.514652    0.00000    0.88104    0.00000    0    orth

 Final occupancy:   3   1   1   0

 !RHF STATE 1.1 Energy                -76.008195502281
 Nuclear energy                         9.06303017
 One-electron energy                 -122.82855185
 Two-electron energy                   37.75732618
 Virial quotient                       -1.00111919
 !RHF STATE 1.1 Dipole moment           0.00000000     0.88103622     0.00000000
 Dipole moment /Debye                   0.00000000     2.23922405     0.00000000

 Orbital energies:

         1.1          2.1          3.1          4.1          5.1
    -20.557938    -1.334613    -0.569397     0.211420     1.149063

         1.2          2.2          3.2
     -0.496833     1.168191     2.069461

         1.3          2.3          3.3
     -0.698169     0.300621     1.014108

         1.4
      2.037291

 HOMO      1.2    -0.496833 =     -13.5195eV
 LUMO      4.1     0.211420 =       5.7530eV
 LUMO-HOMO         0.708253 =      19.2725eV


 **********************************************************************************************************************************
 DATASETS  * FILE   NREC   LENGTH (MB)   RECORD NAMES
              1      18       19.10       500      610      700      900      950      970     1000      129      960     1100   
                                          VAR    BASINP    GEOM    SYMINP    ZMAT    AOBASIS   BASIS     P2S    ABASIS      S 
                                         1400     1410     1200     1210     1080     1600     1650     1700   
                                           T        V       H0       H01     AOSYM     SMH    MOLCAS    OPER   

              2       5        2.79       700     1000      520     2100     5600   
                                         GEOM     BASIS   MCVARS     RHF     GINFO   

 PROGRAMS   *        TOTAL       RHF   CCSD(T)       RHF       INT
 CPU TIMES  *        13.24      0.39      0.06      0.06      0.14
 REAL TIME  *        16.20 SEC
 DISK USED  *        86.02 MB      
 SF USED    *         0.08 MB      
 GA USED    *         0.00 MB       (max)       0.00 MB       (current)
 **********************************************************************************************************************************


 PROGRAM * CCSD (Closed-shell coupled cluster)     Authors: C. Hampel, H.-J. Werner, 1991, M. Deegan, P.J. Knowles, 1992


 Convergence thresholds:  THRVAR = 1.00D-14  THRDEN = 1.00D-10

 CCSD(T)     terms to be evaluated (factor= 1.000)


 Number of core orbitals:           1 (   1   0   0   0 )
 Number of closed-shell orbitals:   4 (   2   1   1   0 )
 Number of external orbitals:      13 (   6   2   4   1 )

 Molecular orbitals read from record     2100.2  Type=RHF/CANONICAL (state 1.1)

 Number of N-1 electron functions:               4
 Number of N-2 electron functions:              10
 Number of singly external CSFs:                18
 Number of doubly external CSFs:               393
 Total number of CSFs:                         412

 Length of J-op  integral file:               0.00 MB
 Length of K-op  integral file:               0.01 MB
 Length of 3-ext integral record:             0.00 MB

 Memory could be reduced to 0.29 Mwords without degradation in triples

 Integral transformation finished. Total CPU:   0.01 sec, npass=  1  Memory used:   0.07 MW

 Reference energy:                    -76.00819550

 MP2 singlet pair energy:              -0.11446148
 MP2 triplet pair energy:              -0.07128716
 MP2 correlation energy:               -0.18574864
 MP2 total energy:                    -76.19394414

 SCS-MP2 correlation energy:           -0.18171023   (PS=  1.200000  PT=  0.333333)
 SCS-MP2 total energy:                -76.18990573

 ITER.      SQ.NORM     CORR.ENERGY   TOTAL ENERGY   ENERGY CHANGE        DEN1      VAR(S)    VAR(P)  DIIS     TIME  TIME/IT
   1      1.05272731    -0.19385411   -76.20204962    -0.00810548    -0.00463748  0.26D-03  0.73D-03  1  1     0.01     0.00
   2      1.05621944    -0.19491962   -76.20311513    -0.00106551    -0.00397089  0.54D-05  0.56D-04  2  2     0.01     0.00
   3      1.05698378    -0.19501365   -76.20320915    -0.00009403    -0.00055610  0.23D-05  0.23D-05  3  3     0.02     0.00
   4      1.05714117    -0.19501260   -76.20320811     0.00000104    -0.00008455  0.10D-06  0.13D-06  4  4     0.02     0.00
   5      1.05717303    -0.19501133   -76.20320683     0.00000128    -0.00001336  0.34D-07  0.62D-08  5  5     0.02     0.00
   6      1.05717722    -0.19501104   -76.20320654     0.00000029     0.00000047  0.29D-08  0.80D-09  6  6     0.02     0.00
   7      1.05717985    -0.19501094   -76.20320645     0.00000009    -0.00000025  0.10D-09  0.55D-10  6  1     0.03     0.00
   8      1.05718024    -0.19501091   -76.20320641     0.00000003    -0.00000002  0.16D-11  0.41D-11  6  2     0.03     0.00
   9      1.05718033    -0.19501090   -76.20320640     0.00000001    -0.00000004  0.71D-13  0.24D-12  6  3     0.03     0.00
  10      1.05718037    -0.19501090   -76.20320640     0.00000000    -0.00000003  0.12D-14  0.47D-14  6  6     0.03     0.00
  11      1.05718037    -0.19501090   -76.20320640     0.00000000    -0.00000000  0.11D-15  0.36D-15  6  4     0.03     0.00
  12      1.05718037    -0.19501090   -76.20320640     0.00000000     0.00000000  0.68D-17  0.20D-16  6  5     0.03     0.00
  13      1.05718037    -0.19501090   -76.20320640    -0.00000000     0.00000000  0.78D-18  0.49D-18  6  1     0.04     0.00

 Norm of t1 vector:      0.02341493      S-energy:    -0.00000000      T1 diagnostic:  0.00585373
                                                                       D1 diagnostic:  0.01051841

 Doubles amplitudes (print threshold =  0.500E-01):

         I         J         SYM. A    SYM. B    A         B      T(IJ, AB)

         3         3         2         2         1         1     -0.05237380

 Total CPU time for triples:      0.00 sec


 RESULTS
 =======

  Reference energy                    -76.008195502281
  CCSD singlet pair energy             -0.132238020783
  CCSD triplet pair energy             -0.062772876258
  CCSD correlation energy              -0.195010897048

  Triples (T) contribution             -0.001796481934
  Total correlation energy             -0.196807378982

  CCSD total energy                   -76.203206399329
  CCSD[T] energy                      -76.205090957224
  CCSD-T energy                       -76.204963323833
 !CCSD(T) total energy                -76.205002881263

 Timing summary (sec):

 STEP                 CPU(USER)    SYS     CPU(TOT)    WALL
 Transformation          0.01      0.00      0.01      0.01
 CCSD iterations         0.03      0.02      0.05      0.05

 Program statistics:

 Available memory in ccsd:               999998927
 Min. memory needed in ccsd:                  3277
 Max. memory used in ccsd:                    3491
 Max. memory used in cckext:                 36036 (13 integral passes)



 **********************************************************************************************************************************
 DATASETS  * FILE   NREC   LENGTH (MB)   RECORD NAMES
              1      19       19.12       500      610      700      900      950      970     1000      129      960     1100   
                                          VAR    BASINP    GEOM    SYMINP    ZMAT    AOBASIS   BASIS     P2S    ABASIS      S 
                                         1400     1410     1200     1210     1080     1600     1650     1700     1380   
                                           T        V       H0       H01     AOSYM     SMH    MOLCAS    OPER     JKOP   

              2       5        2.79       700     1000      520     2100     5600   
                                         GEOM     BASIS   MCVARS     RHF     GINFO   

 PROGRAMS   *        TOTAL   CCSD(T)   CCSD(T)       RHF       INT
 CPU TIMES  *        13.31      0.06      0.06      0.06      0.14
 REAL TIME  *        16.28 SEC
 DISK USED  *        86.02 MB      
 SF USED    *         0.08 MB      
 GA USED    *         0.00 MB       (max)       0.00 MB       (current)
 **********************************************************************************************************************************
   4   -76.20500288   -76.20500288     0.00000000  0.00005215  0.00005490  0.00001830  0.00007493  0.00008893  0.00005135     12.91

 Current geometry (xyz format, in Angstrom)

    3
 CCSD(T)/6-31G*  ENERGY=-76.20500288
 O          0.0000000000       -0.0458106463        0.0000000000
 H          0.0000000000        0.5520553231       -0.7654438604
 H          0.0000000000        0.5520553231        0.7654438604

 **********************************************************************************************************************************

 END OF GEOMETRY OPTIMIZATION.

 Current geometry (xyz format, in Angstrom)

    3
 CCSD(T)/6-31G*  ENERGY=-76.20500288
 O          0.0000000000       -0.0458106463        0.0000000000
 H          0.0000000000        0.5520553231       -0.7654438604
 H          0.0000000000        0.5520553231        0.7654438604

 **********************************************************************************************************************************

 Geometry written to block  1 of record 700


 **********************************************************************************************************************************
 DATASETS  * FILE   NREC   LENGTH (MB)   RECORD NAMES
              1      19       19.12       500      610      700      900      950      970     1000      129      960     1100   
                                          VAR    BASINP    GEOM    SYMINP    ZMAT    AOBASIS   BASIS     P2S    ABASIS      S 
                                         1400     1410     1200     1210     1080     1600     1650     1700     1380   
                                           T        V       H0       H01     AOSYM     SMH    MOLCAS    OPER     JKOP   

              2       5        2.79       700     1000      520     2100     5600   
                                         GEOM     BASIS   MCVARS     RHF     GINFO   

 PROGRAMS   *        TOTAL      OPTG   CCSD(T)       RHF       INT
 CPU TIMES  *        13.32     12.91      0.06      0.06      0.14
 REAL TIME  *        16.28 SEC
 DISK USED  *        86.02 MB      
 SF USED    *         0.08 MB      
 GA USED    *         0.00 MB       (max)       0.00 MB       (current)
 **********************************************************************************************************************************

 CCSD(T)/6-31G*//CCSD(T)/6-31G* energy=    -76.205002881263

   OPTG(CCSD(T))        CCSD(T)         RHF-SCF 
    -76.20500288    -76.20418682    -76.00852136
 **********************************************************************************************************************************
 Molpro calculation terminated
 Variable memory released
