
Running Job 1 of 1 /lcrc/project/CMRP/tests/qchem/input.dat
qchem /lcrc/project/CMRP/tests/qchem/input.dat_14327.0 /scratch/kmoore/qchem14327/ 0
/soft/qchem/5.3.0_mpich3//exe/qcprog.exe_s /lcrc/project/CMRP/tests/qchem/input.dat_14327.0 /scratch/kmoore/qchem14327/
                  Welcome to Q-Chem
     A Quantum Leap Into The Future Of Chemistry


 Q-Chem 5.2, Q-Chem, Inc., Pleasanton, CA (2019)

 License issued to: Argonne National Laboratory (site)

 Yihan Shao,  Zhengting Gan,  E. Epifanovsky,  A. T. B. Gilbert,  M. Wormit,  
 J. Kussmann,  A. W. Lange,  A. Behn,  Jia Deng,  Xintian Feng,  D. Ghosh,  
 M. Goldey,  P. R. Horn,  L. D. Jacobson,  I. Kaliman,  T. Kus,  A. Landau,  
 Jie Liu,  E. I. Proynov,  R. M. Richard,  R. P. Steele,  E. J. Sundstrom,  
 H. L. Woodcock III,  P. M. Zimmerman,  D. Zuev,  B. Alam,  B. Albrecht,  
 E. Alguire,  S. A. Baeppler,  D. Barton,  Z. Benda,  Y. A. Bernard,  
 E. J. Berquist,  K. B. Bravaya,  H. Burton,  K. Carter-Fenk,  D. Casanova,  
 Chun-Min Chang,  Yunqing Chen,  A. Chien,  K. D. Closser,  M. P. Coons,  
 S. Coriani,  S. Dasgupta,  A. L. Dempwolff,  M. Diedenhofen,  Hainam Do,  
 R. G. Edgar,  Po-Tung Fang,  S. Faraji,  S. Fatehi,  Qingguo Feng,  
 J. Fosso-Tande,  J. Gayvert,  Qinghui Ge,  A. Ghysels,  G. Gidofalvi,  
 J. Gomes,  J. Gonthier,  A. Gunina,  D. Hait,  M. W. D. Hanson-Heine,  
 P. H. P. Harbach,  A. W. Hauser,  M. F. Herbst,  J. E. Herr,  
 E. G. Hohenstein,  Z. C. Holden,  Kerwin Hui,  B. C. Huynh,  T.-C. Jagau,  
 Hyunjun Ji,  B. Kaduk,  K. Khistyaev,  Jaehoon Kim,  P. Klunzinger,  K. Koh,  
 D. Kosenkov,  L. Koulias,  T. Kowalczyk,  C. M. Krauter,  A. Kunitsa,  
 Ka Un Lao,  A. Laurent,  K. V. Lawler,  Joonho Lee,  D. Lefrancois,  
 S. Lehtola,  D. S. Levine,  Yi-Pei Li,  You-Sheng Lin,  Fenglai Liu,  
 Kuan-Yu Liu,  E. Livshits,  M. Loipersberger,  A. Luenser,  P. Manohar,  
 E. Mansoor,  S. F. Manzer,  Shan-Ping Mao,  Yuezhi Mao,  N. Mardirossian,  
 A. V. Marenich,  T. Markovich,  L. A. Martinez-Martinez,  S. A. Maurer,  
 N. J. Mayhall,  S. C. McKenzie,  J.-M. Mewes,  P. Morgante,  A. F. Morrison,  
 J. W. Mullinax,  K. Nanda,  T. S. Nguyen-Beck,  R. Olivares-Amaya,  
 J. A. Parkhill,  S. K. Paul,  Zheng Pei,  T. M. Perrine,  F. Plasser,  
 P. Pokhilko,  S. Prager,  A. Prociuk,  E. Ramos,  B. Rana,  D. R. Rehn,  
 F. Rob,  M. Scheurer,  M. Schneider,  N. Sergueev,  S. M. Sharada,  
 S. Sharma,  D. W. Small,  T. Stauch,  C. J. Stein,  T. Stein,  Yu-Chuan Su,  
 S. P. Veccham,  A. J. W. Thom,  A. Tkatchenko,  T. Tsuchimochi,  
 N. M. Tubman,  L. Vogt,  M. L. Vidal,  O. Vydrov,  M. A. Watson,  J. Wenzel,  
 M. de Wergifosse,  T. A. Wesolowski,  A. White,  J. Witte,  A. Yamada,  
 Jun Yang,  K. Yao,  S. Yeganeh,  S. R. Yost,  Zhi-Qiang You,  A. Zech,  
 Igor Ying Zhang,  Xing Zhang,  Yan Zhao,  Ying Zhu,  B. R. Brooks,  
 G. K. L. Chan,  C. J. Cramer,  M. S. Gordon,  W. J. Hehre,  A. Klamt,  
 M. W. Schmidt,  C. D. Sherrill,  D. G. Truhlar,  A. Aspuru-Guzik,  R. Baer,  
 A. T. Bell,  N. A. Besley,  Jeng-Da Chai,  A. E. DePrince, III,  
 R. A. DiStasio Jr.,  A. Dreuw,  B. D. Dunietz,  T. R. Furlani,  
 Chao-Ping Hsu,  Yousung Jung,  Jing Kong,  D. S. Lambrecht,  WanZhen Liang,  
 C. Ochsenfeld,  V. A. Rassolov,  L. V. Slipchenko,  J. E. Subotnik,  
 T. Van Voorhis,  J. M. Herbert,  A. I. Krylov,  P. M. W. Gill,  M. Head-Gordon

 Contributors to earlier versions of Q-Chem not listed above: 
 R. D. Adamson,  B. Austin,  J. Baker,  G. J. O. Beran,  K. Brandhorst,  
 S. T. Brown,  E. F. C. Byrd,  A. K. Chakraborty,  C.-L. Cheng,  
 Siu Hung Chien,  D. M. Chipman,  D. L. Crittenden,  H. Dachsel,  
 R. J. Doerksen,  A. D. Dutoi,  L. Fusti-Molnar,  W. A. Goddard III,  
 A. Golubeva-Zadorozhnaya,  S. R. Gwaltney,  G. Hawkins,  A. Heyden,  
 S. Hirata,  G. Kedziora,  F. J. Keil,  C. Kelley,  Jihan Kim,  R. A. King,  
 R. Z. Khaliullin,  P. P. Korambath,  W. Kurlancheek,  A. M. Lee,  M. S. Lee,  
 S. V. Levchenko,  Ching Yeh Lin,  D. Liotard,  R. C. Lochan,  I. Lotan,  
 P. E. Maslen,  N. Nair,  D. P. O'Neill,  D. Neuhauser,  E. Neuscamman,  
 C. M. Oana,  R. Olson,  B. Peters,  R. Peverati,  P. A. Pieniazek,  
 Y. M. Rhee,  J. Ritchie,  M. A. Rohrdanz,  E. Rosta,  N. J. Russ,  
 H. F. Schaefer III,  N. E. Schultz,  N. Shenvi,  A. C. Simmonett,  A. Sodt,  
 D. Stuck,  K. S. Thanthiriwatte,  V. Vanovschi,  Tao Wang,  A. Warshel,  
 C. F. Williams,  Q. Wu,  X. Xu,  W. Zhang

 Please cite Q-Chem as follows:
 Y. Shao et al., Mol. Phys. 113, 184-215 (2015)
 DOI: 10.1080/00268976.2014.952696

 Q-Chem 5.2.2 for Intel X86 EM64T Linux

 Parts of Q-Chem use Armadillo 8.300.2 (Tropical Shenanigans).
 http://arma.sourceforge.net/

 Q-Chem begins on Thu May 13 18:51:22 2021  

Host: 
0

     Scratch files written to /scratch/kmoore/qchem14327//
 Nov2519 |scratch|qcdevops|jenkins|workspace|build_RNUM 7476   
Processing $rem in /soft/qchem/5.3.0_mpich3//config/preferences:
	 MEM_TOTAL  8000 
NAlpha2: 10
NElect   10
Mult     1
Core orbitals will be frozen


!!********************************************.
!!******************Warning*******************.
!!Desired Analytical derivatives not available.
!!Finite difference job might take a long time.
!!********************************************.
!!********************************************.


 2-order derivative to be evaluated numerically with 1-order analytical derivatives

Checking the input file for inconsistencies... 	...done.

--------------------------------------------------------------
User input:
--------------------------------------------------------------
$molecule
0 1
O
H  1 r1
H  1 r1 2 a1

r1 = 0.96
a1 = 104.01
$end


$rem
JOBTYPE       freq
BASIS         6-31G*   Just a small basis set
METHOD        mp2      MP2
$end
--------------------------------------------------------------
 ----------------------------------------------------------------
             Standard Nuclear Orientation (Angstroms)
    I     Atom           X                Y                Z
 ----------------------------------------------------------------
    1      O       0.0000000000     0.0000000000     0.1181937996
    2      H      -0.7565418981    -0.0000000000    -0.4727751983
    3      H       0.7565418981    -0.0000000000    -0.4727751983
 ----------------------------------------------------------------
 Molecular Point Group                 C2v   NOp =  4
 Largest Abelian Subgroup              C2v   NOp =  4
 Nuclear Repulsion Energy =           9.16935442 hartrees
 There are        5 alpha and        5 beta electrons
 Requested basis set is 6-31G(d)
 There are 8 shells and 19 basis functions

 Total QAlloc Memory Limit   8000 MB
 Mega-Array Size       188 MB
 MEM_STATIC part       192 MB

                       Distance Matrix (Angstroms)
             O (  1)   H (  2)
   H (  2)  0.960000
   H (  3)  0.960000  1.513084
 
 A cutoff of  1.0D-11 yielded     36 shell pairs
 There are       217 function pairs
 Smallest overlap matrix eigenvalue = 2.24E-02
 Guess from superposition of atomic densities
 Warning:  Energy on first SCF cycle will be non-variational
 SAD guess density has 10.000000 electrons

 -----------------------------------------------------------------------
  General SCF calculation program by
  Eric Jon Sundstrom, Paul Horn, Yuezhi Mao, Dmitri Zuev, Alec White,
  David Stuck, Shaama M.S., Shane Yost, Joonho Lee, David Small,
  Daniel Levine, Susi Lehtola, Hugh Burton, Evgeny Epifanovsky,
  Bang C. Huynh
 -----------------------------------------------------------------------
 Hartree-Fock
 using 4 threads for integral computing
 -------------------------------------------------------
 OpenMP Integral computing Module                
 Release: version 1.0, May 2013, Q-Chem Inc. Pittsburgh 
 -------------------------------------------------------
 A restricted SCF calculation will be
 performed using DIIS
 SCF converges when DIIS error is below 1.0e-08
 ---------------------------------------
  Cycle       Energy         DIIS error
 ---------------------------------------
    1     -75.9059324382      1.75e-01  
    2     -75.9754028819      3.04e-02  
    3     -76.0028348823      1.56e-02  
    4     -76.0101968102      1.75e-03  
    5     -76.0103654707      4.27e-04  
    6     -76.0103782557      7.21e-05  
    7     -76.0103787243      9.31e-06  
    8     -76.0103787320      8.24e-07  
    9     -76.0103787320      1.51e-07  
   10     -76.0103787320      3.16e-08  
   11     -76.0103787320      3.94e-09  Convergence criterion met
 ---------------------------------------
 SCF time:   CPU 1.46s  wall 0.00s 
 SCF   energy in the final basis set =      -76.0103787320
 Total energy in the final basis set =      -76.0103787320
 
 Components of the MP2 correlation energy:
        aaaa  correlation energy =        -0.0238354324 au
        abab  correlation energy =        -0.1386550246 au
        bbbb  correlation energy =        -0.0238354324 au
        non-Brillouin singles    =        -0.0000000000 au

 Total  MP2   correlation energy =                    -0.18632589 au
        MP2         total energy =                   -76.19670462 au
  Entering Z-vector solver.
   1         0           1      0.000269    0.000269
   2         0           1      0.000104    0.000104
   3         0           1      0.000017    0.000017
   4         0           1      0.000003    0.000003
   5         1           0      0.000000    0.000000    Roots Converged
 
 --------------------------------------------------------------
             Orbital Energies (a.u.) and Symmetries
 --------------------------------------------------------------
 
 Alpha MOs, Restricted
 -- Occupied --                  
-20.561  -1.341  -0.704  -0.572  -0.498
  1 A1    2 A1    1 B1    3 A1    1 B2                                         
 -- Virtual --                   
  0.210   0.303   1.019   1.131   1.168   1.171   1.379   1.436
  4 A1    2 B1    3 B1    5 A1    2 B2    6 A1    4 B1    7 A1                 
  2.019   2.035   2.068   2.619   2.942   3.968
  8 A1    1 A2    3 B2    9 A1    5 B1   10 A1                                 
 
 Beta MOs, Restricted
 -- Occupied --                  
-20.561  -1.341  -0.704  -0.572  -0.498
  1 A1    2 A1    1 B1    3 A1    1 B2                                         
 -- Virtual --                   
  0.210   0.303   1.019   1.131   1.168   1.171   1.379   1.436
  4 A1    2 B1    3 B1    5 A1    2 B2    6 A1    4 B1    7 A1                 
  2.019   2.035   2.068   2.619   2.942   3.968
  8 A1    1 A2    3 B2    9 A1    5 B1   10 A1                                 
 --------------------------------------------------------------
 
          Ground-State Mulliken Net Atomic Charges

     Atom                 Charge (a.u.)
  ----------------------------------------
      1 O                    -0.830420
      2 H                     0.415210
      3 H                     0.415210
  ----------------------------------------
  Sum of atomic charges =     0.000000

 -----------------------------------------------------------------
                    Cartesian Multipole Moments
 -----------------------------------------------------------------
    Charge (ESU x 10^10)
                 0.0000
    Dipole Moment (Debye)
         X       0.0000      Y      -0.0000      Z      -2.1940
       Tot       2.1940
    Quadrupole Moments (Debye-Ang)
        XX      -4.2631     XY      -0.0000     YY      -7.3256
        XZ      -0.0000     YZ       0.0000     ZZ      -6.0596
    Octopole Moments (Debye-Ang^2)
       XXX       0.0000    XXY      -0.0000    XYY       0.0000
       YYY      -0.0000    XXZ      -1.3042    XYZ      -0.0000
       YYZ      -0.3679    XZZ       0.0000    YZZ      -0.0000
       ZZZ      -1.3631
    Hexadecapole Moments (Debye-Ang^3)
      XXXX      -5.8325   XXXY      -0.0000   XXYY      -2.1167
      XYYY      -0.0000   YYYY      -5.3832   XXXZ      -0.0000
      XXYZ       0.0000   XYYZ       0.0000   YYYZ       0.0000
      XXZZ      -1.6971   XYZZ      -0.0000   YYZZ      -1.9960
      XZZZ      -0.0000   YZZZ       0.0000   ZZZZ      -6.2920
 -----------------------------------------------------------------
 DrvMan is completing analytic gradient of the MP2 energy
 MP2 relaxed dipole moment
            1
    1   0.0000000
    2  -0.0000000
    3  -0.8631823
	Magnitude:	 0.863 au	 2.194 Debye
 MP2 energy read as -76.196705
 Full Analytical Gradient of MP2 Energy (in au.)
             1             2             3
    1   -0.00000000    0.00725959   -0.00725959
    2   -0.00000000    0.00000000    0.00000000
    3   -0.01002639    0.00501320    0.00501320
 Gradient time:  CPU 0.35 s  wall 0.10 s
 ######################################################
 ######################################################
 # Starting finite difference calculation for IDERIV  #
 Finite diff step size:  1.88973e-03 a.u.
 ----------------------------------------------------------------
             Standard Nuclear Orientation (Angstroms)
    I     Atom           X                Y                Z
 ----------------------------------------------------------------
    1      O       0.0010000000     0.0000000000     0.1181937996
    2      H      -0.7565418981    -0.0000000000    -0.4727751983
    3      H       0.7565418981    -0.0000000000    -0.4727751983
 ----------------------------------------------------------------
 Nuclear Repulsion Energy =           9.16935855 hartrees
 There are        5 alpha and        5 beta electrons

                       Distance Matrix (Angstroms)
             O (  1)   H (  2)
   H (  2)  0.960788
   H (  3)  0.959212  1.513084
 
 Requested basis set is 6-31G(d)
 There are 8 shells and 19 basis functions
 A cutoff of  1.0D-11 yielded     36 shell pairs
 There are       217 function pairs
 Smallest overlap matrix eigenvalue = 2.24E-02
 Guess MOs from SCF MO coefficient file

 -----------------------------------------------------------------------
  General SCF calculation program by
  Eric Jon Sundstrom, Paul Horn, Yuezhi Mao, Dmitri Zuev, Alec White,
  David Stuck, Shaama M.S., Shane Yost, Joonho Lee, David Small,
  Daniel Levine, Susi Lehtola, Hugh Burton, Evgeny Epifanovsky,
  Bang C. Huynh
 -----------------------------------------------------------------------
 Hartree-Fock
 using 4 threads for integral computing
 -------------------------------------------------------
 OpenMP Integral computing Module                
 Release: version 1.0, May 2013, Q-Chem Inc. Pittsburgh 
 -------------------------------------------------------
 A restricted SCF calculation will be
 performed using DIIS
 SCF converges when DIIS error is below 1.0e-08
 ---------------------------------------
  Cycle       Energy         DIIS error
 ---------------------------------------
    1     -76.0103769719      8.68e-05  
    2     -76.0103774122      2.30e-05  
    3     -76.0103774579      4.77e-06  
    4     -76.0103774604      1.01e-06  
    5     -76.0103774606      1.18e-07  
    6     -76.0103774606      2.85e-08  
    7     -76.0103774606      1.18e-08  
    8     -76.0103774606      5.03e-10  Convergence criterion met
 ---------------------------------------
 SCF time:   CPU 1.14s  wall 0.00s 
 SCF   energy in the final basis set =      -76.0103774606
 Total energy in the final basis set =      -76.0103774606
 
 Components of the MP2 correlation energy:
        aaaa  correlation energy =        -0.0238354285 au
        abab  correlation energy =        -0.1386550327 au
        bbbb  correlation energy =        -0.0238354285 au
        non-Brillouin singles    =        -0.0000000000 au

 Total  MP2   correlation energy =                    -0.18632589 au
        MP2         total energy =                   -76.19670335 au
  Entering Z-vector solver.
   1         0           1      0.000269    0.000269
   2         0           1      0.000104    0.000104
   3         0           1      0.000017    0.000017
   4         0           1      0.000003    0.000003
   5         1           0      0.000000    0.000000    Roots Converged
 
 --------------------------------------------------------------
 
                    Orbital Energies (a.u.)
 --------------------------------------------------------------
 
 Alpha MOs
 -- Occupied --
-20.5612  -1.3408  -0.7045  -0.5716  -0.4979
 -- Virtual --
  0.2101   0.3034   1.0191   1.1315   1.1677   1.1706   1.3795   1.4358
  2.0194   2.0348   2.0677   2.6185   2.9417   3.9682
 --------------------------------------------------------------
 
          Ground-State Mulliken Net Atomic Charges

     Atom                 Charge (a.u.)
  ----------------------------------------
      1 O                    -0.830419
      2 H                     0.415123
      3 H                     0.415297
  ----------------------------------------
  Sum of atomic charges =     0.000000

 -----------------------------------------------------------------
                    Cartesian Multipole Moments
 -----------------------------------------------------------------
    Charge (ESU x 10^10)
                -0.0000
    Dipole Moment (Debye)
         X      -0.0024      Y      -0.0000      Z      -2.1940
       Tot       2.1940
    Quadrupole Moments (Debye-Ang)
        XX      -4.2631     XY       0.0000     YY      -7.3256
        XZ      -0.0008     YZ       0.0000     ZZ      -6.0596
    Octopole Moments (Debye-Ang^2)
       XXX      -0.0139    XXY       0.0000    XYY      -0.0054
       YYY       0.0000    XXZ      -1.3042    XYZ      -0.0000
       YYZ      -0.3679    XZZ      -0.0052    YZZ       0.0000
       ZZZ      -1.3631
    Hexadecapole Moments (Debye-Ang^3)
      XXXX      -5.8325   XXXY       0.0000   XXYY      -2.1167
      XYYY       0.0000   YYYY      -5.3832   XXXZ      -0.0026
      XXYZ       0.0000   XYYZ      -0.0012   YYYZ       0.0000
      XXZZ      -1.6971   XYZZ       0.0000   YYZZ      -1.9960
      XZZZ      -0.0033   YZZZ       0.0000   ZZZZ      -6.2920
 -----------------------------------------------------------------
 DrvMan is completing analytic gradient of the MP2 energy
 MP2 relaxed dipole moment
            1
    1  -0.0009317
    2  -0.0000000
    3  -0.8631822
	Magnitude:	 0.863 au	 2.194 Debye
 MP2 energy read as -76.196703
 Full Analytical Gradient of MP2 Energy (in au.)
             1             2             3
    1    0.00134540    0.00658826   -0.00793367
    2   -0.00000000   -0.00000000    0.00000000
    3   -0.01002979    0.00448281    0.00554698
 Gradient time:  CPU 0.35 s  wall 0.10 s
 ----------------------------------------------------------------
             Standard Nuclear Orientation (Angstroms)
    I     Atom           X                Y                Z
 ----------------------------------------------------------------
    1      O       0.0000000000     0.0010000000     0.1181937996
    2      H      -0.7565418981    -0.0000000000    -0.4727751983
    3      H       0.7565418981    -0.0000000000    -0.4727751983
 ----------------------------------------------------------------
 Nuclear Repulsion Energy =           9.16934963 hartrees
 There are        5 alpha and        5 beta electrons

                       Distance Matrix (Angstroms)
             O (  1)   H (  2)
   H (  2)  0.960001
   H (  3)  0.960001  1.513084
 
 Requested basis set is 6-31G(d)
 There are 8 shells and 19 basis functions
 A cutoff of  1.0D-11 yielded     36 shell pairs
 There are       217 function pairs
 Smallest overlap matrix eigenvalue = 2.24E-02
 Guess MOs from SCF MO coefficient file

 -----------------------------------------------------------------------
  General SCF calculation program by
  Eric Jon Sundstrom, Paul Horn, Yuezhi Mao, Dmitri Zuev, Alec White,
  David Stuck, Shaama M.S., Shane Yost, Joonho Lee, David Small,
  Daniel Levine, Susi Lehtola, Hugh Burton, Evgeny Epifanovsky,
  Bang C. Huynh
 -----------------------------------------------------------------------
 Hartree-Fock
 using 4 threads for integral computing
 -------------------------------------------------------
 OpenMP Integral computing Module                
 Release: version 1.0, May 2013, Q-Chem Inc. Pittsburgh 
 -------------------------------------------------------
 A restricted SCF calculation will be
 performed using DIIS
 SCF converges when DIIS error is below 1.0e-08
 ---------------------------------------
  Cycle       Energy         DIIS error
 ---------------------------------------
    1     -76.0103779494      1.10e-04  
    2     -76.0103786201      2.85e-05  
    3     -76.0103786943      6.95e-06  
    4     -76.0103787003      1.95e-06  
    5     -76.0103787010      4.36e-07  
    6     -76.0103787010      9.87e-08  
    7     -76.0103787010      3.75e-08  
    8     -76.0103787010      5.90e-09  Convergence criterion met
 ---------------------------------------
 SCF time:   CPU 1.09s  wall 1.00s 
 SCF   energy in the final basis set =      -76.0103787010
 Total energy in the final basis set =      -76.0103787010
 
 Components of the MP2 correlation energy:
        aaaa  correlation energy =        -0.0238354370 au
        abab  correlation energy =        -0.1386550625 au
        bbbb  correlation energy =        -0.0238354370 au
        non-Brillouin singles    =        -0.0000000000 au

 Total  MP2   correlation energy =                    -0.18632594 au
        MP2         total energy =                   -76.19670464 au
  Entering Z-vector solver.
   1         0           1      0.000269    0.000269
   2         0           1      0.000104    0.000104
   3         0           1      0.000017    0.000017
   4         0           1      0.000003    0.000003
   5         1           0      0.000000    0.000000    Roots Converged
 
 --------------------------------------------------------------
 
                    Orbital Energies (a.u.)
 --------------------------------------------------------------
 
 Alpha MOs
 -- Occupied --
-20.5612  -1.3408  -0.7045  -0.5716  -0.4979
 -- Virtual --
  0.2101   0.3034   1.0191   1.1315   1.1677   1.1705   1.3795   1.4358
  2.0194   2.0348   2.0677   2.6185   2.9417   3.9682
 --------------------------------------------------------------
 
          Ground-State Mulliken Net Atomic Charges

     Atom                 Charge (a.u.)
  ----------------------------------------
      1 O                    -0.830420
      2 H                     0.415210
      3 H                     0.415210
  ----------------------------------------
  Sum of atomic charges =     0.000000

 -----------------------------------------------------------------
                    Cartesian Multipole Moments
 -----------------------------------------------------------------
    Charge (ESU x 10^10)
                 0.0000
    Dipole Moment (Debye)
         X      -0.0000      Y      -0.0037      Z      -2.1940
       Tot       2.1940
    Quadrupole Moments (Debye-Ang)
        XX      -4.2631     XY       0.0000     YY      -7.3256
        XZ       0.0000     YZ       0.0004     ZZ      -6.0596
    Octopole Moments (Debye-Ang^2)
       XXX      -0.0000    XXY      -0.0056    XYY      -0.0000
       YYY      -0.0194    XXZ      -1.3042    XYZ      -0.0000
       YYZ      -0.3679    XZZ      -0.0000    YZZ      -0.0059
       ZZZ      -1.3631
    Hexadecapole Moments (Debye-Ang^3)
      XXXX      -5.8325   XXXY       0.0000   XXYY      -2.1167
      XYYY       0.0000   YYYY      -5.3832   XXXZ       0.0000
      XXYZ      -0.0003   XYYZ       0.0000   YYYZ      -0.0019
      XXZZ      -1.6971   XYZZ       0.0000   YYZZ      -1.9960
      XZZZ       0.0000   YZZZ      -0.0016   ZZZZ      -6.2920
 -----------------------------------------------------------------
 DrvMan is completing analytic gradient of the MP2 energy
 MP2 relaxed dipole moment
            1
    1  -0.0000000
    2  -0.0014606
    3  -0.8631816
	Magnitude:	 0.863 au	 2.194 Debye
 MP2 energy read as -76.196705
 Full Analytical Gradient of MP2 Energy (in au.)
             1             2             3
    1   -0.00000000    0.00725926   -0.00725926
    2   -0.00001696    0.00000848    0.00000848
    3   -0.01002561    0.00501280    0.00501281
 Gradient time:  CPU 0.36 s  wall 0.10 s
 ----------------------------------------------------------------
             Standard Nuclear Orientation (Angstroms)
    I     Atom           X                Y                Z
 ----------------------------------------------------------------
    1      O       0.0000000000     0.0000000000     0.1191937996
    2      H      -0.7565418981    -0.0000000000    -0.4727751983
    3      H       0.7565418981    -0.0000000000    -0.4727751983
 ----------------------------------------------------------------
 Nuclear Repulsion Energy =           9.16369956 hartrees
 There are        5 alpha and        5 beta electrons

                       Distance Matrix (Angstroms)
             O (  1)   H (  2)
   H (  2)  0.960616
   H (  3)  0.960616  1.513084
 
 Requested basis set is 6-31G(d)
 There are 8 shells and 19 basis functions
 A cutoff of  1.0D-11 yielded     36 shell pairs
 There are       217 function pairs
 Smallest overlap matrix eigenvalue = 2.24E-02
 Guess MOs from SCF MO coefficient file

 -----------------------------------------------------------------------
  General SCF calculation program by
  Eric Jon Sundstrom, Paul Horn, Yuezhi Mao, Dmitri Zuev, Alec White,
  David Stuck, Shaama M.S., Shane Yost, Joonho Lee, David Small,
  Daniel Levine, Susi Lehtola, Hugh Burton, Evgeny Epifanovsky,
  Bang C. Huynh
 -----------------------------------------------------------------------
 Hartree-Fock
 using 4 threads for integral computing
 -------------------------------------------------------
 OpenMP Integral computing Module                
 Release: version 1.0, May 2013, Q-Chem Inc. Pittsburgh 
 -------------------------------------------------------
 A restricted SCF calculation will be
 performed using DIIS
 SCF converges when DIIS error is below 1.0e-08
 ---------------------------------------
  Cycle       Energy         DIIS error
 ---------------------------------------
    1     -76.0103405009      1.07e-04  
    2     -76.0103410816      4.10e-05  
    3     -76.0103411533      1.64e-05  
    4     -76.0103411709      3.63e-06  
    5     -76.0103411728      8.82e-07  
    6     -76.0103411729      1.99e-07  
    7     -76.0103411729      3.54e-08  
    8     -76.0103411729      5.59e-09  Convergence criterion met
 ---------------------------------------
 SCF time:   CPU 1.04s  wall 1.00s 
 SCF   energy in the final basis set =      -76.0103411729
 Total energy in the final basis set =      -76.0103411729
 
 Components of the MP2 correlation energy:
        aaaa  correlation energy =        -0.0238408699 au
        abab  correlation energy =        -0.1386998006 au
        bbbb  correlation energy =        -0.0238408699 au
        non-Brillouin singles    =        -0.0000000000 au

 Total  MP2   correlation energy =                    -0.18638154 au
        MP2         total energy =                   -76.19672271 au
  Entering Z-vector solver.
   1         0           1      0.000269    0.000269
   2         0           1      0.000104    0.000104
   3         0           1      0.000017    0.000017
   4         0           1      0.000003    0.000003
   5         1           0      0.000000    0.000000    Roots Converged
 
 --------------------------------------------------------------
 
                    Orbital Energies (a.u.)
 --------------------------------------------------------------
 
 Alpha MOs
 -- Occupied --
-20.5614  -1.3406  -0.7040  -0.5716  -0.4979
 -- Virtual --
  0.2099   0.3032   1.0184   1.1314   1.1676   1.1702   1.3792   1.4361
  2.0192   2.0351   2.0677   2.6177   2.9405   3.9677
 --------------------------------------------------------------
 
          Ground-State Mulliken Net Atomic Charges

     Atom                 Charge (a.u.)
  ----------------------------------------
      1 O                    -0.830125
      2 H                     0.415062
      3 H                     0.415062
  ----------------------------------------
  Sum of atomic charges =     0.000000

 -----------------------------------------------------------------
                    Cartesian Multipole Moments
 -----------------------------------------------------------------
    Charge (ESU x 10^10)
                 0.0000
    Dipole Moment (Debye)
         X       0.0000      Y       0.0000      Z      -2.1959
       Tot       2.1959
    Quadrupole Moments (Debye-Ang)
        XX      -4.2664     XY      -0.0000     YY      -7.3269
        XZ      -0.0000     YZ      -0.0000     ZZ      -6.0609
    Octopole Moments (Debye-Ang^2)
       XXX       0.0000    XXY       0.0000    XYY       0.0000
       YYY       0.0000    XXZ      -1.3087    XYZ       0.0000
       YYZ      -0.3736    XZZ       0.0000    YZZ       0.0000
       ZZZ      -1.3788
    Hexadecapole Moments (Debye-Ang^3)
      XXXX      -5.8406   XXXY      -0.0000   XXYY      -2.1182
      XYYY      -0.0000   YYYY      -5.3847   XXXZ      -0.0000
      XXYZ      -0.0000   XYYZ      -0.0000   YYYZ      -0.0000
      XXZZ      -1.6998   XYZZ      -0.0000   YYZZ      -1.9981
      XZZZ      -0.0000   YZZZ      -0.0000   ZZZZ      -6.3020
 -----------------------------------------------------------------
 DrvMan is completing analytic gradient of the MP2 energy
 MP2 relaxed dipole moment
            1
    1   0.0000000
    2   0.0000000
    3  -0.8639277
	Magnitude:	 0.864 au	 2.196 Debye
 MP2 energy read as -76.196723
 Full Analytical Gradient of MP2 Energy (in au.)
             1             2             3
    1    0.00000000    0.00686772   -0.00686772
    2   -0.00000000    0.00000000    0.00000000
    3   -0.00911672    0.00455836    0.00455836
 Gradient time:  CPU 0.33 s  wall 0.08 s
 ----------------------------------------------------------------
             Standard Nuclear Orientation (Angstroms)
    I     Atom           X                Y                Z
 ----------------------------------------------------------------
    1      O       0.0000000000     0.0000000000     0.1171937996
    2      H      -0.7565418981    -0.0000000000    -0.4727751983
    3      H       0.7565418981    -0.0000000000    -0.4727751983
 ----------------------------------------------------------------
 Nuclear Repulsion Energy =           9.17501059 hartrees
 There are        5 alpha and        5 beta electrons

                       Distance Matrix (Angstroms)
             O (  1)   H (  2)
   H (  2)  0.959385
   H (  3)  0.959385  1.513084
 
 Requested basis set is 6-31G(d)
 There are 8 shells and 19 basis functions
 A cutoff of  1.0D-11 yielded     36 shell pairs
 There are       217 function pairs
 Smallest overlap matrix eigenvalue = 2.24E-02
 Guess MOs from SCF MO coefficient file

 -----------------------------------------------------------------------
  General SCF calculation program by
  Eric Jon Sundstrom, Paul Horn, Yuezhi Mao, Dmitri Zuev, Alec White,
  David Stuck, Shaama M.S., Shane Yost, Joonho Lee, David Small,
  Daniel Levine, Susi Lehtola, Hugh Burton, Evgeny Epifanovsky,
  Bang C. Huynh
 -----------------------------------------------------------------------
 Hartree-Fock
 using 4 threads for integral computing
 -------------------------------------------------------
 OpenMP Integral computing Module                
 Release: version 1.0, May 2013, Q-Chem Inc. Pittsburgh 
 -------------------------------------------------------
 A restricted SCF calculation will be
 performed using DIIS
 SCF converges when DIIS error is below 1.0e-08
 ---------------------------------------
  Cycle       Energy         DIIS error
 ---------------------------------------
    1     -76.0104128180      1.67e-04  
    2     -76.0104142218      7.48e-05  
    3     -76.0104144168      2.27e-05  
    4     -76.0104144539      4.19e-06  
    5     -76.0104144560      7.14e-07  
    6     -76.0104144561      1.67e-07  
    7     -76.0104144561      2.73e-08  
    8     -76.0104144561      3.49e-09  Convergence criterion met
 ---------------------------------------
 SCF time:   CPU 1.06s  wall 1.00s 
 SCF   energy in the final basis set =      -76.0104144561
 Total energy in the final basis set =      -76.0104144561
 
 Components of the MP2 correlation energy:
        aaaa  correlation energy =        -0.0238300071 au
        abab  correlation energy =        -0.1386103391 au
        bbbb  correlation energy =        -0.0238300071 au
        non-Brillouin singles    =        -0.0000000000 au

 Total  MP2   correlation energy =                    -0.18627035 au
        MP2         total energy =                   -76.19668481 au
  Entering Z-vector solver.
   1         0           1      0.000269    0.000269
   2         0           1      0.000104    0.000104
   3         0           1      0.000017    0.000017
   4         0           1      0.000003    0.000003
   5         1           0      0.000000    0.000000    Roots Converged
 
 --------------------------------------------------------------
 
                    Orbital Energies (a.u.)
 --------------------------------------------------------------
 
 Alpha MOs
 -- Occupied --
-20.5610  -1.3410  -0.7050  -0.5715  -0.4979
 -- Virtual --
  0.2102   0.3035   1.0198   1.1316   1.1677   1.1709   1.3798   1.4355
  2.0195   2.0346   2.0677   2.6193   2.9429   3.9687
 --------------------------------------------------------------
 
          Ground-State Mulliken Net Atomic Charges

     Atom                 Charge (a.u.)
  ----------------------------------------
      1 O                    -0.830714
      2 H                     0.415357
      3 H                     0.415357
  ----------------------------------------
  Sum of atomic charges =     0.000000

 -----------------------------------------------------------------
                    Cartesian Multipole Moments
 -----------------------------------------------------------------
    Charge (ESU x 10^10)
                 0.0000
    Dipole Moment (Debye)
         X      -0.0000      Y       0.0000      Z      -2.1921
       Tot       2.1921
    Quadrupole Moments (Debye-Ang)
        XX      -4.2598     XY       0.0000     YY      -7.3243
        XZ       0.0000     YZ      -0.0000     ZZ      -6.0584
    Octopole Moments (Debye-Ang^2)
       XXX      -0.0000    XXY       0.0000    XYY       0.0000
       YYY       0.0000    XXZ      -1.2997    XYZ      -0.0000
       YYZ      -0.3622    XZZ      -0.0000    YZZ       0.0000
       ZZZ      -1.3474
    Hexadecapole Moments (Debye-Ang^3)
      XXXX      -5.8243   XXXY      -0.0000   XXYY      -2.1152
      XYYY       0.0000   YYYY      -5.3816   XXXZ      -0.0000
      XXYZ      -0.0000   XYYZ      -0.0000   YYYZ      -0.0000
      XXZZ      -1.6945   XYZZ      -0.0000   YYZZ      -1.9939
      XZZZ      -0.0000   YZZZ      -0.0000   ZZZZ      -6.2820
 -----------------------------------------------------------------
 DrvMan is completing analytic gradient of the MP2 energy
 MP2 relaxed dipole moment
            1
    1  -0.0000000
    2   0.0000000
    3  -0.8624347
	Magnitude:	 0.862 au	 2.192 Debye
 MP2 energy read as -76.196685
 Full Analytical Gradient of MP2 Energy (in au.)
             1             2             3
    1   -0.00000000    0.00765368   -0.00765368
    2   -0.00000000    0.00000000    0.00000000
    3   -0.01093767    0.00546883    0.00546883
 Gradient time:  CPU 0.34 s  wall 0.09 s
 ----------------------------------------------------------------
             Standard Nuclear Orientation (Angstroms)
    I     Atom           X                Y                Z
 ----------------------------------------------------------------
    1      O       0.0000000000     0.0000000000     0.1181937996
    2      H      -0.7555418981    -0.0000000000    -0.4727751983
    3      H       0.7565418981    -0.0000000000    -0.4727751983
 ----------------------------------------------------------------
 Nuclear Repulsion Energy =           9.17320779 hartrees
 There are        5 alpha and        5 beta electrons

                       Distance Matrix (Angstroms)
             O (  1)   H (  2)
   H (  2)  0.959212
   H (  3)  0.960000  1.512084
 
 Requested basis set is 6-31G(d)
 There are 8 shells and 19 basis functions
 A cutoff of  1.0D-11 yielded     36 shell pairs
 There are       217 function pairs
 Smallest overlap matrix eigenvalue = 2.24E-02
 Guess MOs from SCF MO coefficient file

 -----------------------------------------------------------------------
  General SCF calculation program by
  Eric Jon Sundstrom, Paul Horn, Yuezhi Mao, Dmitri Zuev, Alec White,
  David Stuck, Shaama M.S., Shane Yost, Joonho Lee, David Small,
  Daniel Levine, Susi Lehtola, Hugh Burton, Evgeny Epifanovsky,
  Bang C. Huynh
 -----------------------------------------------------------------------
 Hartree-Fock
 using 4 threads for integral computing
 -------------------------------------------------------
 OpenMP Integral computing Module                
 Release: version 1.0, May 2013, Q-Chem Inc. Pittsburgh 
 -------------------------------------------------------
 A restricted SCF calculation will be
 performed using DIIS
 SCF converges when DIIS error is below 1.0e-08
 ---------------------------------------
  Cycle       Energy         DIIS error
 ---------------------------------------
    1     -76.0103949490      7.75e-05  
    2     -76.0103952709      2.33e-05  
    3     -76.0103952995      1.00e-05  
    4     -76.0103953045      2.17e-06  
    5     -76.0103953050      4.23e-07  
    6     -76.0103953050      8.67e-08  
    7     -76.0103953050      1.51e-08  
    8     -76.0103953050      2.02e-09  Convergence criterion met
 ---------------------------------------
 SCF time:   CPU 1.11s  wall 0.00s 
 SCF   energy in the final basis set =      -76.0103953050
 Total energy in the final basis set =      -76.0103953050
 
 Components of the MP2 correlation energy:
        aaaa  correlation energy =        -0.0238323793 au
        abab  correlation energy =        -0.1386301419 au
        bbbb  correlation energy =        -0.0238323793 au
        non-Brillouin singles    =        -0.0000000000 au

 Total  MP2   correlation energy =                    -0.18629490 au
        MP2         total energy =                   -76.19669021 au
  Entering Z-vector solver.
   1         0           1      0.000269    0.000269
   2         0           1      0.000104    0.000104
   3         0           1      0.000017    0.000017
   4         0           1      0.000003    0.000003
   5         1           0      0.000000    0.000000    Roots Converged
 
 --------------------------------------------------------------
 
                    Orbital Energies (a.u.)
 --------------------------------------------------------------
 
 Alpha MOs
 -- Occupied --
-20.5612  -1.3410  -0.7046  -0.5717  -0.4980
 -- Virtual --
  0.2101   0.3035   1.0191   1.1316   1.1676   1.1711   1.3796   1.4360
  2.0191   2.0348   2.0676   2.6190   2.9423   3.9683
 --------------------------------------------------------------
 
          Ground-State Mulliken Net Atomic Charges

     Atom                 Charge (a.u.)
  ----------------------------------------
      1 O                    -0.830422
      2 H                     0.415254
      3 H                     0.415168
  ----------------------------------------
  Sum of atomic charges =     0.000000

 -----------------------------------------------------------------
                    Cartesian Multipole Moments
 -----------------------------------------------------------------
    Charge (ESU x 10^10)
                 0.0000
    Dipole Moment (Debye)
         X       0.0012      Y       0.0000      Z      -2.1944
       Tot       2.1944
    Quadrupole Moments (Debye-Ang)
        XX      -4.2655     XY       0.0000     YY      -7.3248
        XZ      -0.0007     YZ      -0.0000     ZZ      -6.0585
    Octopole Moments (Debye-Ang^2)
       XXX       0.0005    XXY       0.0000    XYY      -0.0010
       YYY       0.0000    XXZ      -1.3030    XYZ       0.0000
       YYZ      -0.3683    XZZ      -0.0004    YZZ       0.0000
       ZZZ      -1.3642
    Hexadecapole Moments (Debye-Ang^3)
      XXXX      -5.8305   XXXY       0.0000   XXYY      -2.1155
      XYYY       0.0000   YYYY      -5.3822   XXXZ      -0.0007
      XXYZ      -0.0000   XYYZ       0.0004   YYYZ      -0.0000
      XXZZ      -1.6966   XYZZ       0.0000   YYZZ      -1.9955
      XZZZ       0.0010   YZZZ      -0.0000   ZZZZ      -6.2899
 -----------------------------------------------------------------
 DrvMan is completing analytic gradient of the MP2 energy
 MP2 relaxed dipole moment
            1
    1   0.0004661
    2   0.0000000
    3  -0.8633321
	Magnitude:	 0.863 au	 2.194 Debye
 MP2 energy read as -76.196690
 Full Analytical Gradient of MP2 Energy (in au.)
             1             2             3
    1   -0.00067407    0.00799336   -0.00731928
    2   -0.00000000    0.00000000    0.00000000
    3   -0.01042097    0.00547737    0.00494360
 Gradient time:  CPU 0.35 s  wall 0.10 s
 ----------------------------------------------------------------
             Standard Nuclear Orientation (Angstroms)
    I     Atom           X                Y                Z
 ----------------------------------------------------------------
    1      O       0.0000000000     0.0000000000     0.1181937996
    2      H      -0.7575418981    -0.0000000000    -0.4727751983
    3      H       0.7565418981    -0.0000000000    -0.4727751983
 ----------------------------------------------------------------
 Nuclear Repulsion Energy =           9.16550548 hartrees
 There are        5 alpha and        5 beta electrons

                       Distance Matrix (Angstroms)
             O (  1)   H (  2)
   H (  2)  0.960788
   H (  3)  0.960000  1.514084
 
 Requested basis set is 6-31G(d)
 There are 8 shells and 19 basis functions
 A cutoff of  1.0D-11 yielded     36 shell pairs
 There are       217 function pairs
 Smallest overlap matrix eigenvalue = 2.24E-02
 Guess MOs from SCF MO coefficient file

 -----------------------------------------------------------------------
  General SCF calculation program by
  Eric Jon Sundstrom, Paul Horn, Yuezhi Mao, Dmitri Zuev, Alec White,
  David Stuck, Shaama M.S., Shane Yost, Joonho Lee, David Small,
  Daniel Levine, Susi Lehtola, Hugh Burton, Evgeny Epifanovsky,
  Bang C. Huynh
 -----------------------------------------------------------------------
 Hartree-Fock
 using 4 threads for integral computing
 -------------------------------------------------------
 OpenMP Integral computing Module                
 Release: version 1.0, May 2013, Q-Chem Inc. Pittsburgh 
 -------------------------------------------------------
 A restricted SCF calculation will be
 performed using DIIS
 SCF converges when DIIS error is below 1.0e-08
 ---------------------------------------
  Cycle       Energy         DIIS error
 ---------------------------------------
    1     -76.0103598243      1.35e-04  
    2     -76.0103606638      4.55e-05  
    3     -76.0103607467      1.83e-05  
    4     -76.0103607642      3.63e-06  
    5     -76.0103607654      6.95e-07  
    6     -76.0103607655      1.10e-07  
    7     -76.0103607655      1.91e-08  
    8     -76.0103607655      3.55e-09  Convergence criterion met
 ---------------------------------------
 SCF time:   CPU 1.11s  wall 0.00s 
 SCF   energy in the final basis set =      -76.0103607655
 Total energy in the final basis set =      -76.0103607655
 
 Components of the MP2 correlation energy:
        aaaa  correlation energy =        -0.0238384836 au
        abab  correlation energy =        -0.1386799209 au
        bbbb  correlation energy =        -0.0238384836 au
        non-Brillouin singles    =        -0.0000000000 au

 Total  MP2   correlation energy =                    -0.18635689 au
        MP2         total energy =                   -76.19671765 au
  Entering Z-vector solver.
   1         0           1      0.000269    0.000269
   2         0           1      0.000104    0.000104
   3         0           1      0.000017    0.000017
   4         0           1      0.000003    0.000003
   5         1           0      0.000000    0.000000    Roots Converged
 
 --------------------------------------------------------------
 
                    Orbital Energies (a.u.)
 --------------------------------------------------------------
 
 Alpha MOs
 -- Occupied --
-20.5613  -1.3406  -0.7043  -0.5714  -0.4979
 -- Virtual --
  0.2100   0.3033   1.0191   1.1313   1.1677   1.1700   1.3794   1.4356
  2.0196   2.0349   2.0678   2.6181   2.9411   3.9680
 --------------------------------------------------------------
 
          Ground-State Mulliken Net Atomic Charges

     Atom                 Charge (a.u.)
  ----------------------------------------
      1 O                    -0.830417
      2 H                     0.415165
      3 H                     0.415252
  ----------------------------------------
  Sum of atomic charges =     0.000000

 -----------------------------------------------------------------
                    Cartesian Multipole Moments
 -----------------------------------------------------------------
    Charge (ESU x 10^10)
                 0.0000
    Dipole Moment (Debye)
         X      -0.0012      Y      -0.0000      Z      -2.1936
       Tot       2.1936
    Quadrupole Moments (Debye-Ang)
        XX      -4.2608     XY      -0.0000     YY      -7.3264
        XZ       0.0007     YZ      -0.0000     ZZ      -6.0608
    Octopole Moments (Debye-Ang^2)
       XXX      -0.0005    XXY      -0.0000    XYY       0.0010
       YYY      -0.0000    XXZ      -1.3054    XYZ      -0.0000
       YYZ      -0.3675    XZZ       0.0004    YZZ      -0.0000
       ZZZ      -1.3620
    Hexadecapole Moments (Debye-Ang^3)
      XXXX      -5.8345   XXXY      -0.0000   XXYY      -2.1179
      XYYY      -0.0000   YYYY      -5.3841   XXXZ       0.0007
      XXYZ      -0.0000   XYYZ      -0.0004   YYYZ      -0.0000
      XXZZ      -1.6977   XYZZ      -0.0000   YYZZ      -1.9965
      XZZZ      -0.0010   YZZZ      -0.0000   ZZZZ      -6.2940
 -----------------------------------------------------------------
 DrvMan is completing analytic gradient of the MP2 energy
 MP2 relaxed dipole moment
            1
    1  -0.0004657
    2  -0.0000000
    3  -0.8630323
	Magnitude:	 0.863 au	 2.194 Debye
 MP2 energy read as -76.196718
 Full Analytical Gradient of MP2 Energy (in au.)
             1             2             3
    1    0.00067133    0.00652875   -0.00720009
    2    0.00000000   -0.00000000   -0.00000000
    3   -0.00963504    0.00455231    0.00508272
 Gradient time:  CPU 0.34 s  wall 0.09 s
 ----------------------------------------------------------------
             Standard Nuclear Orientation (Angstroms)
    I     Atom           X                Y                Z
 ----------------------------------------------------------------
    1      O       0.0000000000     0.0000000000     0.1181937996
    2      H      -0.7565418981     0.0010000000    -0.4727751983
    3      H       0.7565418981    -0.0000000000    -0.4727751983
 ----------------------------------------------------------------
 Nuclear Repulsion Energy =           9.16935195 hartrees
 There are        5 alpha and        5 beta electrons

                       Distance Matrix (Angstroms)
             O (  1)   H (  2)
   H (  2)  0.960001
   H (  3)  0.960000  1.513084
 
 Requested basis set is 6-31G(d)
 There are 8 shells and 19 basis functions
 A cutoff of  1.0D-11 yielded     36 shell pairs
 There are       217 function pairs
 Smallest overlap matrix eigenvalue = 2.24E-02
 Guess MOs from SCF MO coefficient file

 -----------------------------------------------------------------------
  General SCF calculation program by
  Eric Jon Sundstrom, Paul Horn, Yuezhi Mao, Dmitri Zuev, Alec White,
  David Stuck, Shaama M.S., Shane Yost, Joonho Lee, David Small,
  Daniel Levine, Susi Lehtola, Hugh Burton, Evgeny Epifanovsky,
  Bang C. Huynh
 -----------------------------------------------------------------------
 Hartree-Fock
 using 4 threads for integral computing
 -------------------------------------------------------
 OpenMP Integral computing Module                
 Release: version 1.0, May 2013, Q-Chem Inc. Pittsburgh 
 -------------------------------------------------------
 A restricted SCF calculation will be
 performed using DIIS
 SCF converges when DIIS error is below 1.0e-08
 ---------------------------------------
  Cycle       Energy         DIIS error
 ---------------------------------------
    1     -76.0103783498      8.02e-05  
    2     -76.0103786754      2.59e-05  
    3     -76.0103787097      1.16e-05  
    4     -76.0103787175      2.83e-06  
    5     -76.0103787185      7.68e-07  
    6     -76.0103787186      1.65e-07  
    7     -76.0103787186      2.28e-08  
    8     -76.0103787186      4.41e-09  Convergence criterion met
 ---------------------------------------
 SCF time:   CPU 1.13s  wall 0.00s 
 SCF   energy in the final basis set =      -76.0103787186
 Total energy in the final basis set =      -76.0103787186
 
 Components of the MP2 correlation energy:
        aaaa  correlation energy =        -0.0238354345 au
        abab  correlation energy =        -0.1386550423 au
        bbbb  correlation energy =        -0.0238354345 au
        non-Brillouin singles    =        -0.0000000000 au

 Total  MP2   correlation energy =                    -0.18632591 au
        MP2         total energy =                   -76.19670463 au
  Entering Z-vector solver.
   1         0           1      0.000269    0.000269
   2         0           1      0.000104    0.000104
   3         0           1      0.000017    0.000017
   4         0           1      0.000003    0.000003
   5         1           0      0.000000    0.000000    Roots Converged
 
 --------------------------------------------------------------
 
                    Orbital Energies (a.u.)
 --------------------------------------------------------------
 
 Alpha MOs
 -- Occupied --
-20.5612  -1.3408  -0.7045  -0.5716  -0.4979
 -- Virtual --
  0.2101   0.3034   1.0191   1.1315   1.1677   1.1705   1.3795   1.4358
  2.0194   2.0348   2.0677   2.6185   2.9417   3.9682
 --------------------------------------------------------------
 
          Ground-State Mulliken Net Atomic Charges

     Atom                 Charge (a.u.)
  ----------------------------------------
      1 O                    -0.830420
      2 H                     0.415210
      3 H                     0.415210
  ----------------------------------------
  Sum of atomic charges =     0.000000

 -----------------------------------------------------------------
                    Cartesian Multipole Moments
 -----------------------------------------------------------------
    Charge (ESU x 10^10)
                -0.0000
    Dipole Moment (Debye)
         X       0.0000      Y       0.0019      Z      -2.1940
       Tot       2.1940
    Quadrupole Moments (Debye-Ang)
        XX      -4.2631     XY      -0.0020     YY      -7.3256
        XZ      -0.0000     YZ      -0.0013     ZZ      -6.0596
    Octopole Moments (Debye-Ang^2)
       XXX       0.0000    XXY       0.0007    XYY      -0.0000
       YYY      -0.0013    XXZ      -1.3042    XYZ       0.0006
       YYZ      -0.3679    XZZ       0.0000    YZZ      -0.0001
       ZZZ      -1.3631
    Hexadecapole Moments (Debye-Ang^3)
      XXXX      -5.8325   XXXY      -0.0003   XXYY      -2.1167
      XYYY       0.0006   YYYY      -5.3832   XXXZ      -0.0000
      XXYZ      -0.0005   XYYZ       0.0000   YYYZ       0.0004
      XXZZ      -1.6971   XYZZ      -0.0002   YYZZ      -1.9960
      XZZZ      -0.0000   YZZZ       0.0001   ZZZZ      -6.2920
 -----------------------------------------------------------------
 DrvMan is completing analytic gradient of the MP2 energy
 MP2 relaxed dipole moment
            1
    1   0.0000002
    2   0.0007303
    3  -0.8631821
	Magnitude:	 0.863 au	 2.194 Debye
 MP2 energy read as -76.196705
 Full Analytical Gradient of MP2 Energy (in au.)
             1             2             3
    1    0.00000045    0.00725915   -0.00725960
    2    0.00000848   -0.00000904    0.00000056
    3   -0.01002606    0.00501286    0.00501321
 Gradient time:  CPU 0.35 s  wall 0.10 s
 ----------------------------------------------------------------
             Standard Nuclear Orientation (Angstroms)
    I     Atom           X                Y                Z
 ----------------------------------------------------------------
    1      O       0.0000000000     0.0000000000     0.1181937996
    2      H      -0.7565418981    -0.0000000000    -0.4717751983
    3      H       0.7565418981    -0.0000000000    -0.4727751983
 ----------------------------------------------------------------
 Nuclear Repulsion Energy =           9.17218243 hartrees
 There are        5 alpha and        5 beta electrons

                       Distance Matrix (Angstroms)
             O (  1)   H (  2)
   H (  2)  0.959385
   H (  3)  0.960000  1.513084
 
 Requested basis set is 6-31G(d)
 There are 8 shells and 19 basis functions
 A cutoff of  1.0D-11 yielded     36 shell pairs
 There are       217 function pairs
 Smallest overlap matrix eigenvalue = 2.24E-02
 Guess MOs from SCF MO coefficient file

 -----------------------------------------------------------------------
  General SCF calculation program by
  Eric Jon Sundstrom, Paul Horn, Yuezhi Mao, Dmitri Zuev, Alec White,
  David Stuck, Shaama M.S., Shane Yost, Joonho Lee, David Small,
  Daniel Levine, Susi Lehtola, Hugh Burton, Evgeny Epifanovsky,
  Bang C. Huynh
 -----------------------------------------------------------------------
 Hartree-Fock
 using 4 threads for integral computing
 -------------------------------------------------------
 OpenMP Integral computing Module                
 Release: version 1.0, May 2013, Q-Chem Inc. Pittsburgh 
 -------------------------------------------------------
 A restricted SCF calculation will be
 performed using DIIS
 SCF converges when DIIS error is below 1.0e-08
 ---------------------------------------
  Cycle       Energy         DIIS error
 ---------------------------------------
    1     -76.0103962918      7.36e-05  
    2     -76.0103965859      2.46e-05  
    3     -76.0103966198      1.12e-05  
    4     -76.0103966275      2.84e-06  
    5     -76.0103966285      7.24e-07  
    6     -76.0103966285      1.47e-07  
    7     -76.0103966285      2.81e-08  
    8     -76.0103966285      4.75e-09  Convergence criterion met
 ---------------------------------------
 SCF time:   CPU 1.09s  wall 1.00s 
 SCF   energy in the final basis set =      -76.0103966285
 Total energy in the final basis set =      -76.0103966285
 
 Components of the MP2 correlation energy:
        aaaa  correlation energy =        -0.0238327179 au
        abab  correlation energy =        -0.1386326741 au
        bbbb  correlation energy =        -0.0238327179 au
        non-Brillouin singles    =        -0.0000000000 au

 Total  MP2   correlation energy =                    -0.18629811 au
        MP2         total energy =                   -76.19669474 au
  Entering Z-vector solver.
   1         0           1      0.000269    0.000269
   2         0           1      0.000104    0.000104
   3         0           1      0.000017    0.000017
   4         0           1      0.000003    0.000003
   5         1           0      0.000000    0.000000    Roots Converged
 
 --------------------------------------------------------------
 
                    Orbital Energies (a.u.)
 --------------------------------------------------------------
 
 Alpha MOs
 -- Occupied --
-20.5611  -1.3409  -0.7047  -0.5715  -0.4979
 -- Virtual --
  0.2101   0.3035   1.0195   1.1315   1.1677   1.1707   1.3796   1.4356
  2.0194   2.0347   2.0677   2.6189   2.9423   3.9684
 --------------------------------------------------------------
 
          Ground-State Mulliken Net Atomic Charges

     Atom                 Charge (a.u.)
  ----------------------------------------
      1 O                    -0.830567
      2 H                     0.415317
      3 H                     0.415250
  ----------------------------------------
  Sum of atomic charges =     0.000000

 -----------------------------------------------------------------
                    Cartesian Multipole Moments
 -----------------------------------------------------------------
    Charge (ESU x 10^10)
                 0.0000
    Dipole Moment (Debye)
         X      -0.0005      Y      -0.0000      Z      -2.1930
       Tot       2.1930
    Quadrupole Moments (Debye-Ang)
        XX      -4.2615     XY      -0.0000     YY      -7.3249
        XZ      -0.0016     YZ       0.0000     ZZ      -6.0612
    Octopole Moments (Debye-Ang^2)
       XXX      -0.0012    XXY      -0.0000    XYY      -0.0004
       YYY      -0.0000    XXZ      -1.3041    XYZ      -0.0000
       YYZ      -0.3687    XZZ       0.0010    YZZ      -0.0000
       ZZZ      -1.3644
    Hexadecapole Moments (Debye-Ang^3)
      XXXX      -5.8284   XXXY      -0.0000   XXYY      -2.1159
      XYYY      -0.0000   YYYY      -5.3824   XXXZ       0.0003
      XXYZ       0.0000   XYYZ       0.0004   YYYZ       0.0000
      XXZZ      -1.6971   XYZZ      -0.0000   YYZZ      -1.9953
      XZZZ       0.0001   YZZZ       0.0000   ZZZZ      -6.2897
 -----------------------------------------------------------------
 DrvMan is completing analytic gradient of the MP2 energy
 MP2 relaxed dipole moment
            1
    1  -0.0002063
    2  -0.0000000
    3  -0.8628086
	Magnitude:	 0.863 au	 2.193 Debye
 MP2 energy read as -76.196695
 Full Analytical Gradient of MP2 Energy (in au.)
             1             2             3
    1   -0.00053329    0.00772327   -0.00718998
    2    0.00000000   -0.00000000   -0.00000000
    3   -0.01048199    0.00544417    0.00503782
 Gradient time:  CPU 0.34 s  wall 0.09 s
 ----------------------------------------------------------------
             Standard Nuclear Orientation (Angstroms)
    I     Atom           X                Y                Z
 ----------------------------------------------------------------
    1      O       0.0000000000     0.0000000000     0.1181937996
    2      H      -0.7565418981    -0.0000000000    -0.4737751983
    3      H       0.7565418981    -0.0000000000    -0.4727751983
 ----------------------------------------------------------------
 Nuclear Repulsion Energy =           9.16652692 hartrees
 There are        5 alpha and        5 beta electrons

                       Distance Matrix (Angstroms)
             O (  1)   H (  2)
   H (  2)  0.960616
   H (  3)  0.960000  1.513084
 
 Requested basis set is 6-31G(d)
 There are 8 shells and 19 basis functions
 A cutoff of  1.0D-11 yielded     36 shell pairs
 There are       217 function pairs
 Smallest overlap matrix eigenvalue = 2.24E-02
 Guess MOs from SCF MO coefficient file

 -----------------------------------------------------------------------
  General SCF calculation program by
  Eric Jon Sundstrom, Paul Horn, Yuezhi Mao, Dmitri Zuev, Alec White,
  David Stuck, Shaama M.S., Shane Yost, Joonho Lee, David Small,
  Daniel Levine, Susi Lehtola, Hugh Burton, Evgeny Epifanovsky,
  Bang C. Huynh
 -----------------------------------------------------------------------
 Hartree-Fock
 using 4 threads for integral computing
 -------------------------------------------------------
 OpenMP Integral computing Module                
 Release: version 1.0, May 2013, Q-Chem Inc. Pittsburgh 
 -------------------------------------------------------
 A restricted SCF calculation will be
 performed using DIIS
 SCF converges when DIIS error is below 1.0e-08
 ---------------------------------------
  Cycle       Energy         DIIS error
 ---------------------------------------
    1     -76.0103591770      1.18e-04  
    2     -76.0103598872      4.25e-05  
    3     -76.0103599671      1.74e-05  
    4     -76.0103599853      3.92e-06  
    5     -76.0103599868      8.37e-07  
    6     -76.0103599869      1.20e-07  
    7     -76.0103599869      1.81e-08  
    8     -76.0103599869      3.34e-09  Convergence criterion met
 ---------------------------------------
 SCF time:   CPU 1.07s  wall 0.00s 
 SCF   energy in the final basis set =      -76.0103599869
 Total energy in the final basis set =      -76.0103599869
 
 Components of the MP2 correlation energy:
        aaaa  correlation energy =        -0.0238381493 au
        abab  correlation energy =        -0.1386774049 au
        bbbb  correlation energy =        -0.0238381493 au
        non-Brillouin singles    =        -0.0000000000 au

 Total  MP2   correlation energy =                    -0.18635370 au
        MP2         total energy =                   -76.19671369 au
  Entering Z-vector solver.
   1         0           1      0.000269    0.000269
   2         0           1      0.000104    0.000104
   3         0           1      0.000017    0.000017
   4         0           1      0.000003    0.000003
   5         1           0      0.000000    0.000000    Roots Converged
 
 --------------------------------------------------------------
 
                    Orbital Energies (a.u.)
 --------------------------------------------------------------
 
 Alpha MOs
 -- Occupied --
-20.5613  -1.3407  -0.7042  -0.5716  -0.4979
 -- Virtual --
  0.2100   0.3033   1.0188   1.1314   1.1676   1.1704   1.3794   1.4360
  2.0193   2.0350   2.0677   2.6181   2.9411   3.9679
 --------------------------------------------------------------
 
          Ground-State Mulliken Net Atomic Charges

     Atom                 Charge (a.u.)
  ----------------------------------------
      1 O                    -0.830273
      2 H                     0.415102
      3 H                     0.415171
  ----------------------------------------
  Sum of atomic charges =     0.000000

 -----------------------------------------------------------------
                    Cartesian Multipole Moments
 -----------------------------------------------------------------
    Charge (ESU x 10^10)
                 0.0000
    Dipole Moment (Debye)
         X       0.0005      Y      -0.0000      Z      -2.1949
       Tot       2.1949
    Quadrupole Moments (Debye-Ang)
        XX      -4.2647     XY      -0.0000     YY      -7.3263
        XZ       0.0016     YZ       0.0000     ZZ      -6.0581
    Octopole Moments (Debye-Ang^2)
       XXX       0.0012    XXY      -0.0000    XYY       0.0004
       YYY      -0.0000    XXZ      -1.3043    XYZ      -0.0000
       YYZ      -0.3671    XZZ      -0.0010    YZZ      -0.0000
       ZZZ      -1.3619
    Hexadecapole Moments (Debye-Ang^3)
      XXXX      -5.8365   XXXY       0.0000   XXYY      -2.1174
      XYYY      -0.0000   YYYY      -5.3840   XXXZ      -0.0003
      XXYZ       0.0000   XYYZ      -0.0004   YYYZ       0.0000
      XXZZ      -1.6971   XYZZ      -0.0000   YYZZ      -1.9967
      XZZZ      -0.0001   YZZZ       0.0000   ZZZZ      -6.2942
 -----------------------------------------------------------------
 DrvMan is completing analytic gradient of the MP2 energy
 MP2 relaxed dipole moment
            1
    1   0.0002069
    2  -0.0000000
    3  -0.8635551
	Magnitude:	 0.864 au	 2.195 Debye
 MP2 energy read as -76.196714
 Full Analytical Gradient of MP2 Energy (in au.)
             1             2             3
    1    0.00053092    0.00679818   -0.00732910
    2    0.00000000   -0.00000000   -0.00000000
    3   -0.00957151    0.00458289    0.00498862
 Gradient time:  CPU 0.34 s  wall 0.10 s
Dipole drv :
gprntSymmMtrx error report: 
 Final Hessian.
            1           2           3           4           5           6
    1   0.7119565  -0.0000006   0.0000000  -0.3559784   0.0000000  -0.2815733
    2  -0.0000006  -0.0089764  -0.0000002   0.0000000   0.0044879  -0.0000002
    3   0.0000000  -0.0000002   0.4818032  -0.2079532   0.0000000  -0.2409018
    4  -0.3559784   0.0000000  -0.2079532   0.3875174   0.0000000   0.2447632
    5   0.0000000   0.0044879   0.0000000   0.0000000  -0.0047827  -0.0000002
    6  -0.2815733  -0.0000002  -0.2409018   0.2447632  -0.0000002   0.2278842
    7  -0.3559784   0.0000000   0.2079532  -0.0315389   0.0000000   0.0368100
    8   0.0000000   0.0044879   0.0000000   0.0000000   0.0002952   0.0000000
    9   0.2815733   0.0000002  -0.2409018  -0.0368100   0.0000001   0.0130177
            7           8           9
    1  -0.3559784   0.0000000   0.2815733
    2   0.0000000   0.0044879   0.0000002
    3   0.2079532   0.0000000  -0.2409018
    4  -0.0315389   0.0000000  -0.0368100
    5   0.0000000   0.0002952   0.0000001
    6   0.0368100   0.0000000   0.0130177
    7   0.3875174   0.0000000  -0.2447632
    8   0.0000000  -0.0047827   0.0000002
    9  -0.2447632   0.0000002   0.2278842
 ----------------------------------------------------------------
             Standard Nuclear Orientation (Angstroms)
    I     Atom           X                Y                Z
 ----------------------------------------------------------------
    1      O       0.0000000000     0.0000000000     0.1181937996
    2      H      -0.7565418981    -0.0000000000    -0.4727751983
    3      H       0.7565418981    -0.0000000000    -0.4727751983
 ----------------------------------------------------------------
 Nuclear Repulsion Energy =           9.16935442 hartrees
 There are        5 alpha and        5 beta electrons
 old dipole drv.
            1           2           3           4           5           6
    1  -0.4930507  -0.0000068   0.0000000   0.2465239   0.0000000  -0.1093140
    2  -0.0000000  -0.7729307   0.0000020   0.0000000   0.3864678  -0.0000023
    3   0.0000000   0.0000000  -0.3950292  -0.0793277   0.0000000   0.1975167
            7           8           9
    1   0.2465239   0.0000000   0.1093140
    2   0.0000000   0.3864678   0.0000023
    3   0.0793277   0.0000000   0.1975167
 New transposed dipole drv.
            1           2           3
    1  -0.4930507  -0.0000000   0.0000000
    2  -0.0000068  -0.7729307   0.0000000
    3   0.0000000   0.0000020  -0.3950292
    4   0.2465239   0.0000000  -0.0793277
    5   0.0000000   0.3864678   0.0000000
    6  -0.1093140  -0.0000023   0.1975167
    7   0.2465239   0.0000000   0.0793277
    8   0.0000000   0.3864678   0.0000000
    9   0.1093140   0.0000023   0.1975167
FINAL TENSOR RESULT:
Order 2, Length 9
    Atom      X          Y          Z
     1 Order 1, Length 9
    Atom      X          Y          Z
     1    7.119565030797009e-01  -5.822690208310662e-07   0.000000000000000e+00
     2   -3.559783960550748e-01   0.000000000000000e+00  -2.815732993763008e-01
     3   -3.559783960550748e-01   0.000000000000000e+00   2.815732993763008e-01

Order 1, Length 9
    Atom      X          Y          Z
     1   -5.822690208310662e-07  -8.976419543544990e-03  -2.228568469400254e-07
     2    0.000000000000000e+00   4.487873809871207e-03  -2.158509857004874e-07
     3    0.000000000000000e+00   4.487873809871207e-03   2.158509857004874e-07

Order 1, Length 9
    Atom      X          Y          Z
     1    0.000000000000000e+00  -2.228568469400254e-07   4.818031675285587e-01
     2   -2.079531530322303e-01   0.000000000000000e+00  -2.409017534921027e-01
     3    2.079531530311434e-01   0.000000000000000e+00  -2.409017534974490e-01


     2 Order 1, Length 9
    Atom      X          Y          Z
     1   -3.559783960550748e-01   0.000000000000000e+00  -2.079531530322303e-01
     2    3.875174355504126e-01   0.000000000000000e+00   2.447631706344794e-01
     3   -3.153889498080999e-02   0.000000000000000e+00  -3.681001054167604e-02

Order 1, Length 9
    Atom      X          Y          Z
     1    0.000000000000000e+00   4.487873809871207e-03   0.000000000000000e+00
     2    0.000000000000000e+00  -4.782712122200820e-03  -1.640285305428295e-07
     3    0.000000000000000e+00   2.951742742352457e-04   1.251265015044015e-07

Order 1, Length 9
    Atom      X          Y          Z
     1   -2.815732993763008e-01  -2.158509857004874e-07  -2.409017534921027e-01
     2    2.447631706344794e-01  -1.640285305428295e-07   2.278841800905387e-01
     3    3.681001054167604e-02   0.000000000000000e+00   1.301774312862363e-02


     3 Order 1, Length 9
    Atom      X          Y          Z
     1   -3.559783960550748e-01   0.000000000000000e+00   2.079531530311434e-01
     2   -3.153889498080999e-02   0.000000000000000e+00   3.681001054167604e-02
     3    3.875174355504126e-01   0.000000000000000e+00  -2.447631706344794e-01

Order 1, Length 9
    Atom      X          Y          Z
     1    0.000000000000000e+00   4.487873809871207e-03   0.000000000000000e+00
     2    0.000000000000000e+00   2.951742742352457e-04   0.000000000000000e+00
     3    0.000000000000000e+00  -4.782712122200820e-03   1.640285305428295e-07

Order 1, Length 9
    Atom      X          Y          Z
     1    2.815732993763008e-01   2.158509857004874e-07  -2.409017534974490e-01
     2   -3.681001054167604e-02   1.251265015044015e-07   1.301774312862363e-02
     3   -2.447631706344794e-01   1.640285305428295e-07   2.278841800905387e-01




 # Finishing finite difference calculation for IDERIV #
 ######################################################
 ######################################################
 Requested basis set is 6-31G(d)
 There are 8 shells and 19 basis functions
 **********************************************************************
 **                                                                  **
 **                       VIBRATIONAL ANALYSIS                       **
 **                       --------------------                       **
 **                                                                  **
 **        VIBRATIONAL FREQUENCIES (CM**-1) AND NORMAL MODES         **
 **     FORCE CONSTANTS (mDYN/ANGSTROM) AND REDUCED MASSES (AMU)     **
 **                  INFRARED INTENSITIES (KM/MOL)                   **
 **                                                                  **
 **********************************************************************
 

 Mode:                 1                      2                      3
 Frequency:      1717.05                3892.49                4034.40
 Force Cnst:      1.8806                 9.3308                10.3701
 Red. Mass:       1.0826                 1.0452                 1.0814
 IR Active:          YES                    YES                    YES
 IR Intens:       90.642                  6.518                 41.163
 Raman Active:       YES                    YES                    YES
               X      Y      Z        X      Y      Z        X      Y      Z
 O         -0.000 -0.000 -0.071   -0.000 -0.000 -0.050   -0.070 -0.000  0.000
 H         -0.428  0.000  0.561    0.584  0.000  0.396    0.556  0.000  0.434
 H          0.428 -0.000  0.561   -0.584  0.000  0.396    0.556  0.000 -0.434
 TransDip  -0.000 -0.000  0.305   -0.000 -0.000  0.082    0.205 -0.000 -0.000

 STANDARD THERMODYNAMIC QUANTITIES AT   298.15 K  AND     1.00 ATM

   This Molecule has  0 Imaginary Frequencies
   Zero point vibrational energy:       13.787 kcal/mol

   Atom    1 Element O  Has Mass   15.99491
   Atom    2 Element H  Has Mass    1.00783
   Atom    3 Element H  Has Mass    1.00783
   Molecular Mass:    18.010570 amu
   Principal axes and moments of inertia in amu*Bohr^2:
                             1           2           3
    Eigenvalues --        2.23254     4.11985     6.35238
          X               1.00000    -0.00000    -0.00000
          Y               0.00000     0.00000     1.00000
          Z               0.00000     1.00000    -0.00000
   Rotational Symmetry Number is   2
   The Molecule is an Asymmetric Top
   Translational Enthalpy:        0.889 kcal/mol
   Rotational Enthalpy:           0.889 kcal/mol
   Vibrational Enthalpy:         13.788 kcal/mol
   gas constant (RT):             0.592 kcal/mol
   Translational Entropy:        34.608  cal/mol.K
   Rotational Entropy:           10.467  cal/mol.K
   Vibrational Entropy:           0.005  cal/mol.K

   Total Enthalpy:               16.158 kcal/mol
   Total Entropy:                45.080  cal/mol.K
Archival summary:
1\1\b460\FREQ\MP2\6-31G*\12\kmoore\ThuMay1318:51:302021ThuMay1318:51:302021\0\\#,FREQ,MP2,6-31G*,\\0,1\O\H,1,0.96\H,1,0.96,2,104.01\\HF=-76.01036\MP2=-76.1967137\\@

 Total job time:  8.39s(wall), 31.72s(cpu) 
 Thu May 13 18:51:30 2021

        *************************************************************
        *                                                           *
        *  Thank you very much for using Q-Chem.  Have a nice day.  *
        *                                                           *
        *************************************************************


