
Host: gunnar

Timers On : Mon Apr  8 14:28:09 2019
Timers Off: Mon Apr  8 14:28:10 2019

Wall Time:        0.74 seconds

                                                       Time (seconds)
Module                                       User      System        Wall        Calls

--------------------------------------------------------------------------------------

**************************************************************************************
