 Entering Gaussian System, Link 0=g09
 Initial command:
 /soft/gaussian/09-e.01/g09/l1.exe "/scratch/kmoore/Gau-110383.inp" -scrdir="/scratch/kmoore"
 Entering Link 1 = /soft/gaussian/09-e.01/g09/l1.exe PID=    110384.
  
 Copyright (c) 1988,1990,1992,1993,1995,1998,2003,2009,2015,
            Gaussian, Inc.  All Rights Reserved.
  
 This is part of the Gaussian(R) 09 program.  It is based on
 the Gaussian(R) 03 system (copyright 2003, Gaussian, Inc.),
 the Gaussian(R) 98 system (copyright 1998, Gaussian, Inc.),
 the Gaussian(R) 94 system (copyright 1995, Gaussian, Inc.),
 the Gaussian 92(TM) system (copyright 1992, Gaussian, Inc.),
 the Gaussian 90(TM) system (copyright 1990, Gaussian, Inc.),
 the Gaussian 88(TM) system (copyright 1988, Gaussian, Inc.),
 the Gaussian 86(TM) system (copyright 1986, Carnegie Mellon
 University), and the Gaussian 82(TM) system (copyright 1983,
 Carnegie Mellon University). Gaussian is a federally registered
 trademark of Gaussian, Inc.
  
 This software contains proprietary and confidential information,
 including trade secrets, belonging to Gaussian, Inc.
  
 This software is provided under written license and may be
 used, copied, transmitted, or stored only in accord with that
 written license.
  
 The following legend is applicable only to US Government
 contracts under FAR:
  
                    RESTRICTED RIGHTS LEGEND
  
 Use, reproduction and disclosure by the US Government is
 subject to restrictions as set forth in subparagraphs (a)
 and (c) of the Commercial Computer Software - Restricted
 Rights clause in FAR 52.227-19.
  
 Gaussian, Inc.
 340 Quinnipiac St., Bldg. 40, Wallingford CT 06492
  
  
 ---------------------------------------------------------------
 Warning -- This program may not be used in any manner that
 competes with the business of Gaussian, Inc. or will provide
 assistance to any competitor of Gaussian, Inc.  The licensee
 of this program is prohibited from giving any competitor of
 Gaussian, Inc. access to this program.  By using this program,
 the user acknowledges that Gaussian, Inc. is engaged in the
 business of creating and licensing software in the field of
 computational chemistry and represents and warrants to the
 licensee that it is not a competitor of Gaussian, Inc. and that
 it will not use this program in any manner prohibited above.
 ---------------------------------------------------------------
  

 Cite this work as:
 Gaussian 09, Revision E.01,
 M. J. Frisch, G. W. Trucks, H. B. Schlegel, G. E. Scuseria, 
 M. A. Robb, J. R. Cheeseman, G. Scalmani, V. Barone, B. Mennucci, 
 G. A. Petersson, H. Nakatsuji, M. Caricato, X. Li, H. P. Hratchian, 
 A. F. Izmaylov, J. Bloino, G. Zheng, J. L. Sonnenberg, M. Hada, 
 M. Ehara, K. Toyota, R. Fukuda, J. Hasegawa, M. Ishida, T. Nakajima, 
 Y. Honda, O. Kitao, H. Nakai, T. Vreven, J. A. Montgomery, Jr., 
 J. E. Peralta, F. Ogliaro, M. Bearpark, J. J. Heyd, E. Brothers, 
 K. N. Kudin, V. N. Staroverov, T. Keith, R. Kobayashi, J. Normand, 
 K. Raghavachari, A. Rendell, J. C. Burant, S. S. Iyengar, J. Tomasi, 
 M. Cossi, N. Rega, J. M. Millam, M. Klene, J. E. Knox, J. B. Cross, 
 V. Bakken, C. Adamo, J. Jaramillo, R. Gomperts, R. E. Stratmann, 
 O. Yazyev, A. J. Austin, R. Cammi, C. Pomelli, J. W. Ochterski, 
 R. L. Martin, K. Morokuma, V. G. Zakrzewski, G. A. Voth, 
 P. Salvador, J. J. Dannenberg, S. Dapprich, A. D. Daniels, 
 O. Farkas, J. B. Foresman, J. V. Ortiz, J. Cioslowski, 
 and D. J. Fox, Gaussian, Inc., Wallingford CT, 2013.
 
 ******************************************
 Gaussian 09:  ES64L-G09RevE.01 30-Nov-2015
                26-Feb-2020 
 ******************************************
 %mem=20GB
 %NProcShared=10
 Will use up to   10 processors via shared memory.
 ----------------------------------------------------------------------
 #P wb97xd/6-31g* # SCF=(xqc) # int=ultrafine # Freq=(ANHARM,VIBROT,REA
 DANHARM)
 ----------------------------------------------------------------------
 1/10=4,30=1,38=21,80=1/1,6,3;
 2/12=2,17=6,18=5,40=1/2;
 3/5=1,6=6,7=1,11=2,16=1,25=1,30=1,71=2,74=-58,75=-5,140=1/1,2,3;
 4/69=2/1;
 5/5=2,8=3,13=1,38=5,96=-2,98=1/2,8;
 8/6=4,10=90,11=11/1;
 11/6=1,8=1,9=11,15=111,16=1/1,2,10;
 10/6=1,60=-2/2;
 6/7=2,8=2,9=2,10=2,28=1/1;
 7/10=1,25=1,70=1,71=2,72=1/1,2,3,16;
 1/38=20,80=1/6(3);
 7/8=1,25=2,44=-1,70=1,71=2,72=1/16,17;
 1/10=4,30=1,38=20,80=1/3;
 99/8=11100/99;
 3/5=1,6=6,7=1,11=2,16=1,25=1,30=1,71=2,74=-58,75=-5,140=1/1,2,3;
 4/5=5,16=3,69=2/1;
 5/5=2,8=3,13=1,38=5,96=-2,98=1/2,8;
 8/6=4,10=90,11=11/1;
 11/6=1,8=1,9=11,15=111,16=1/1,2,10;
 10/6=1,60=-2/2;
 6/7=2,8=2,9=2,10=2,28=1/1;
 7/7=1,10=1,25=1,70=1,71=1,72=1/1,2,3,16;
 1/38=20,80=1/6(-8);
 7/8=1,25=2,44=-1,70=1,71=1,72=1/16,17;
 1/10=4,30=1,38=20,80=1/3;
 99/8=11100/99;
 Leave Link    1 at Wed Feb 26 13:35:10 2020, MaxMem=  2684354560 cpu:         0.7
 (Enter /soft/gaussian/09-e.01/g09/l101.exe)
 --------
 comment:
 --------
 Symbolic Z-matrix:
 Charge =  0 Multiplicity = 1
 C
 H                    1    R1
 H                    1    R2       2    A2
 H                    1    R3       2    A3       3    D3       0
 H                    1    R4       2    A4       3    D4       0
       Variables:
  R1                    1.093                    
  R2                    1.0922                   
  A2                  109.471                    
  R3                    1.0922                   
  A3                  109.471                    
  D3                  120.                       
  R4                    1.0922                   
  A4                  109.471                    
  D4                  240.                       
 
     3 tetrahedral angles replaced.
 NAtoms=      5 NQM=        5 NQMF=       0 NMMI=      0 NMMIF=      0
                NMic=       0 NMicF=      0.
    3 tetrahedral angles replaced.
                    Isotopes and Nuclear Properties:
 (Nuclear quadrupole moments (NQMom) in fm**2, nuclear magnetic moments (NMagM)
  in nuclear magnetons)

  Atom         1           2           3           4           5
 IAtWgt=          12           1           1           1           1
 AtmWgt=  12.0000000   1.0078250   1.0078250   1.0078250   1.0078250
 NucSpn=           0           1           1           1           1
 AtZEff=   0.0000000   0.0000000   0.0000000   0.0000000   0.0000000
 NQMom=    0.0000000   0.0000000   0.0000000   0.0000000   0.0000000
 NMagM=    0.0000000   2.7928460   2.7928460   2.7928460   2.7928460
 AtZNuc=   6.0000000   1.0000000   1.0000000   1.0000000   1.0000000
 Leave Link  101 at Wed Feb 26 13:35:10 2020, MaxMem=  2684354560 cpu:         0.8
 (Enter /soft/gaussian/09-e.01/g09/l106.exe)
 Numerical evaluation of third derivatives.
 Nuclear step= 0.010000 Angstroms, electric field step= 0.000333 atomic units, NStep=1.
 Leave Link  106 at Wed Feb 26 13:35:10 2020, MaxMem=  2684354560 cpu:         0.0
 (Enter /soft/gaussian/09-e.01/g09/l103.exe)

 GradGradGradGradGradGradGradGradGradGradGradGradGradGradGradGradGradGrad
 Berny optimization.
 Initialization pass.
                       ----------------------------
                       !    Initial Parameters    !
                       ! (Angstroms and Degrees)  !
 ----------------------                            ----------------------
 !      Name          Value   Derivative information (Atomic Units)     !
 ------------------------------------------------------------------------
 !       R1          1.093    calculate D2E/DX2 analytically            !
 !       R2          1.0922   calculate D2E/DX2 analytically            !
 !       A2        109.4712   calculate D2E/DX2 analytically            !
 !       R3          1.0922   calculate D2E/DX2 analytically            !
 !       A3        109.4712   calculate D2E/DX2 analytically            !
 !       D3        120.0      calculate D2E/DX2 analytically            !
 !       R4          1.0922   calculate D2E/DX2 analytically            !
 !       A4        109.4712   calculate D2E/DX2 analytically            !
 !       D4        240.0      calculate D2E/DX2 analytically            !
 ------------------------------------------------------------------------
 Trust Radius=3.00D-01 FncErr=1.00D-07 GrdErr=1.00D-07
 Number of steps in this run=      2 maximum allowed number of steps=      2.
 GradGradGradGradGradGradGradGradGradGradGradGradGradGradGradGradGradGrad

 Leave Link  103 at Wed Feb 26 13:35:10 2020, MaxMem=  2684354560 cpu:         0.2
 (Enter /soft/gaussian/09-e.01/g09/l202.exe)
                          Input orientation:                          
 ---------------------------------------------------------------------
 Center     Atomic      Atomic             Coordinates (Angstroms)
 Number     Number       Type             X           Y           Z
 ---------------------------------------------------------------------
      1          6           0        0.000000    0.000000    0.000000
      2          1           0        0.000000    0.000000    1.093000
      3          1           0        1.029737    0.000000   -0.364067
      4          1           0       -0.514868   -0.891778   -0.364067
      5          1           0       -0.514868    0.891778   -0.364067
 ---------------------------------------------------------------------
                    Distance matrix (angstroms):
                    1          2          3          4          5
     1  C    0.000000
     2  H    1.093000   0.000000
     3  H    1.092201   1.784209   0.000000
     4  H    1.092201   1.784209   1.783557   0.000000
     5  H    1.092201   1.784209   1.783557   1.783557   0.000000
 Stoichiometry    CH4
 Framework group  C3V[C3(HC),3SGV(H)]
 Deg. of freedom     3
 Full point group                 C3V     NOp   6
 Largest Abelian subgroup         CS      NOp   2
 Largest concise Abelian subgroup CS      NOp   2
                         Standard orientation:                         
 ---------------------------------------------------------------------
 Center     Atomic      Atomic             Coordinates (Angstroms)
 Number     Number       Type             X           Y           Z
 ---------------------------------------------------------------------
      1          6           0        0.000000    0.000000    0.000080
      2          1           0        0.000000    0.000000   -1.092920
      3          1           0        0.000000    1.029737    0.364147
      4          1           0       -0.891778   -0.514868    0.364147
      5          1           0        0.891778   -0.514868    0.364147
 ---------------------------------------------------------------------
 Rotational constants (GHZ):    157.6370072    157.5505354    157.5505354
 Leave Link  202 at Wed Feb 26 13:35:10 2020, MaxMem=  2684354560 cpu:         0.1
 (Enter /soft/gaussian/09-e.01/g09/l301.exe)
 Standard basis: 6-31G(d) (6D, 7F)
 Ernie: Thresh=  0.10000D-02 Tol=  0.10000D-05 Strict=F.
 There are    17 symmetry adapted cartesian basis functions of A'  symmetry.
 There are     6 symmetry adapted cartesian basis functions of A"  symmetry.
 There are    17 symmetry adapted basis functions of A'  symmetry.
 There are     6 symmetry adapted basis functions of A"  symmetry.
    23 basis functions,    44 primitive gaussians,    23 cartesian basis functions
     5 alpha electrons        5 beta electrons
       nuclear repulsion energy        13.4058636713 Hartrees.
 IExCor= 4639 DFT=T Ex+Corr=wB97XD ExCW=0 ScaHFX=  1.000000
 ScaDFX=  1.000000  1.000000  1.000000  1.000000 ScalE2=  1.000000  1.000000
 IRadAn=      5 IRanWt=     -1 IRanGd=            0 ICorTp=0 IEmpDi=121
  HFx wShort=  0.000000 wLong=  0.200000 cFull=  0.222036 cShort=  0.000000 cLong=  0.777964
  DFx wShort=  0.000000 wLong=  0.200000 cFull=  0.000000 cShort=  0.000000 cLong=  1.000000
 NAtoms=    5 NActive=    5 NUniq=    3 SFac= 2.78D+00 NAtFMM=   60 NAOKFM=F Big=F
 Integral buffers will be    131072 words long.
 Raffenetti 2 integral format.
 Two-electron integral symmetry is turned on.
 R6Disp:  Grimme-D2 Dispersion energy=       -0.0004024065 Hartrees.
 Nuclear repulsion after empirical dispersion term =       13.4054612648 Hartrees.
 Leave Link  301 at Wed Feb 26 13:35:11 2020, MaxMem=  2684354560 cpu:         0.5
 (Enter /soft/gaussian/09-e.01/g09/l302.exe)
 NPDir=0 NMtPBC=     1 NCelOv=     1 NCel=       1 NClECP=     1 NCelD=      1
         NCelK=      1 NCelE2=     1 NClLst=     1 CellRange=     0.0.
 One-electron integrals computed using PRISM.
 One-electron integral symmetry used in STVInt
 NBasis=    23 RedAO= T EigKep=  2.31D-02  NBF=    17     6
 NBsUse=    23 1.00D-06 EigRej= -1.00D+00 NBFU=    17     6
 Precomputing XC quadrature grid using
 IXCGrd= 4 IRadAn=           5 IRanWt=          -1 IRanGd=           0 AccXCQ= 0.00D+00.
 Generated NRdTot=       0 NPtTot=           0 NUsed=           0 NTot=          32
 NSgBfM=    23    23    23    23    23 MxSgAt=     5 MxSgA2=     5.
 Leave Link  302 at Wed Feb 26 13:35:11 2020, MaxMem=  2684354560 cpu:         1.8
 (Enter /soft/gaussian/09-e.01/g09/l303.exe)
 DipDrv:  MaxL=1.
 Leave Link  303 at Wed Feb 26 13:35:11 2020, MaxMem=  2684354560 cpu:         0.2
 (Enter /soft/gaussian/09-e.01/g09/l401.exe)
 ExpMin= 1.61D-01 ExpMax= 3.05D+03 ExpMxC= 4.57D+02 IAcc=3 IRadAn=         5 AccDes= 0.00D+00
 Harris functional with IExCor= 4639 and IRadAn=       5 diagonalized for initial guess.
 HarFok:  IExCor= 4639 AccDes= 0.00D+00 IRadAn=         5 IDoV= 1 UseB2=F ITyADJ=14
 ICtDFT=  3500011 ScaDFX=  1.000000  1.000000  1.000000  1.000000
 FoFCou: FMM=F IPFlag=           0 FMFlag=      100000 FMFlg1=           0
         NFxFlg=           0 DoJE=T BraDBF=F KetDBF=T FulRan=T
         wScrn=  0.000000 ICntrl=     500 IOpCl=  0 I1Cent=   200000004 NGrid=           0
         NMat0=    1 NMatS0=      1 NMatT0=    0 NMatD0=    1 NMtDS0=    0 NMtDT0=    0
 Petite list used in FoFCou.
 Harris En= -38.2552329081892    
 JPrj=0 DoOrth=F DoCkMO=F.
 Initial guess orbital symmetries:
       Occupied  (A1) (A1) (E) (E) (A1)
       Virtual   (A1) (A1) (E) (E) (E) (E) (A1) (A1) (E) (E) (A1)
                 (A1) (E) (E) (A1) (E) (E) (A1)
 The electronic state of the initial guess is 1-A1.
 Leave Link  401 at Wed Feb 26 13:35:11 2020, MaxMem=  2684354560 cpu:         2.0
 (Enter /soft/gaussian/09-e.01/g09/l502.exe)
 Closed shell SCF:
 Using DIIS extrapolation, IDIIS=  1040.
 Integral symmetry usage will be decided dynamically.
 Keep R1 ints in memory in symmetry-blocked form, NReq=947334.
 IVT=        8029 IEndB=        8029 NGot=  2684354560 MDV=  2684325227
 LenX=  2684325227 LenY=  2684324257
 Requested convergence on RMS density matrix=1.00D-08 within  64 cycles.
 Requested convergence on MAX density matrix=1.00D-06.
 Requested convergence on             energy=1.00D-06.
 No special actions if energy rises.
 FoFCou: FMM=F IPFlag=           0 FMFlag=           0 FMFlg1=           0
         NFxFlg=           0 DoJE=F BraDBF=F KetDBF=F FulRan=T
         wScrn=  0.000000 ICntrl=     600 IOpCl=  0 I1Cent=           0 NGrid=           0
         NMat0=    1 NMatS0=    276 NMatT0=    0 NMatD0=    1 NMtDS0=    0 NMtDT0=    0
 Petite list used in FoFCou.
 Integral accuracy reduced to 1.0D-05 until final iterations.

 Cycle   1  Pass 0  IDiag  1:
 E= -40.4797721288423    
 DIIS: error= 7.35D-02 at cycle   1 NSaved=   1.
 NSaved= 1 IEnMin= 1 EnMin= -40.4797721288423     IErMin= 1 ErrMin= 7.35D-02
 ErrMax= 7.35D-02  0.00D+00 EMaxC= 1.00D-01 BMatC= 4.35D-02 BMatP= 4.35D-02
 IDIUse=3 WtCom= 2.65D-01 WtEn= 7.35D-01
 Coeff-Com:  0.100D+01
 Coeff-En:   0.100D+01
 Coeff:      0.100D+01
 Gap=     0.650 Goal=   None    Shift=    0.000
 GapD=    0.650 DampG=2.000 DampE=0.500 DampFc=1.0000 IDamp=-1.
 RMSDP=7.58D-03 MaxDP=5.75D-02              OVMax= 6.66D-02

 Cycle   2  Pass 0  IDiag  1:
 E= -40.4934150416814     Delta-E=       -0.013642912839 Rises=F Damp=F
 DIIS: error= 2.15D-02 at cycle   2 NSaved=   2.
 NSaved= 2 IEnMin= 2 EnMin= -40.4934150416814     IErMin= 2 ErrMin= 2.15D-02
 ErrMax= 2.15D-02  0.00D+00 EMaxC= 1.00D-01 BMatC= 8.63D-03 BMatP= 4.35D-02
 IDIUse=3 WtCom= 7.85D-01 WtEn= 2.15D-01
 Coeff-Com:  0.244D+00 0.756D+00
 Coeff-En:   0.148D+00 0.852D+00
 Coeff:      0.223D+00 0.777D+00
 Gap=     0.685 Goal=   None    Shift=    0.000
 RMSDP=3.68D-03 MaxDP=3.11D-02 DE=-1.36D-02 OVMax= 3.37D-02

 Cycle   3  Pass 0  IDiag  1:
 E= -40.5006790079306     Delta-E=       -0.007263966249 Rises=F Damp=F
 DIIS: error= 7.56D-03 at cycle   3 NSaved=   3.
 NSaved= 3 IEnMin= 3 EnMin= -40.5006790079306     IErMin= 3 ErrMin= 7.56D-03
 ErrMax= 7.56D-03  0.00D+00 EMaxC= 1.00D-01 BMatC= 1.06D-03 BMatP= 8.63D-03
 IDIUse=3 WtCom= 9.24D-01 WtEn= 7.56D-02
 Coeff-Com:  0.705D-02 0.262D+00 0.731D+00
 Coeff-En:   0.000D+00 0.000D+00 0.100D+01
 Coeff:      0.652D-02 0.242D+00 0.751D+00
 Gap=     0.677 Goal=   None    Shift=    0.000
 RMSDP=1.09D-03 MaxDP=8.83D-03 DE=-7.26D-03 OVMax= 9.91D-03

 Cycle   4  Pass 0  IDiag  1:
 E= -40.5016983491137     Delta-E=       -0.001019341183 Rises=F Damp=F
 DIIS: error= 5.23D-04 at cycle   4 NSaved=   4.
 NSaved= 4 IEnMin= 4 EnMin= -40.5016983491137     IErMin= 4 ErrMin= 5.23D-04
 ErrMax= 5.23D-04  0.00D+00 EMaxC= 1.00D-01 BMatC= 5.99D-06 BMatP= 1.06D-03
 IDIUse=3 WtCom= 9.95D-01 WtEn= 5.23D-03
 Coeff-Com: -0.129D-02-0.781D-01-0.131D+00 0.121D+01
 Coeff-En:   0.000D+00 0.000D+00 0.000D+00 0.100D+01
 Coeff:     -0.129D-02-0.777D-01-0.130D+00 0.121D+01
 Gap=     0.678 Goal=   None    Shift=    0.000
 RMSDP=1.04D-04 MaxDP=7.63D-04 DE=-1.02D-03 OVMax= 7.02D-04

 Cycle   5  Pass 0  IDiag  1:
 E= -40.5017040617304     Delta-E=       -0.000005712617 Rises=F Damp=F
 DIIS: error= 1.61D-05 at cycle   5 NSaved=   5.
 NSaved= 5 IEnMin= 5 EnMin= -40.5017040617304     IErMin= 5 ErrMin= 1.61D-05
 ErrMax= 1.61D-05  0.00D+00 EMaxC= 1.00D-01 BMatC= 7.64D-09 BMatP= 5.99D-06
 IDIUse=1 WtCom= 1.00D+00 WtEn= 0.00D+00
 Coeff-Com: -0.694D-05 0.373D-02 0.431D-02-0.119D+00 0.111D+01
 Coeff:     -0.694D-05 0.373D-02 0.431D-02-0.119D+00 0.111D+01
 Gap=     0.678 Goal=   None    Shift=    0.000
 RMSDP=9.47D-06 MaxDP=4.05D-05 DE=-5.71D-06 OVMax= 3.84D-05

 Initial convergence to 1.0D-05 achieved.  Increase integral accuracy.
 Cycle   6  Pass 1  IDiag  1:
 E= -40.5018593767319     Delta-E=       -0.000155315001 Rises=F Damp=F
 DIIS: error= 7.83D-04 at cycle   1 NSaved=   1.
 NSaved= 1 IEnMin= 1 EnMin= -40.5018593767319     IErMin= 1 ErrMin= 7.83D-04
 ErrMax= 7.83D-04  0.00D+00 EMaxC= 1.00D-01 BMatC= 3.71D-06 BMatP= 3.71D-06
 IDIUse=3 WtCom= 9.92D-01 WtEn= 7.83D-03
 Coeff-Com:  0.100D+01
 Coeff-En:   0.100D+01
 Coeff:      0.100D+01
 Gap=     0.678 Goal=   None    Shift=    0.000
 RMSDP=9.47D-06 MaxDP=4.05D-05 DE=-1.55D-04 OVMax= 5.20D-04

 Cycle   7  Pass 1  IDiag  1:
 E= -40.5018604409826     Delta-E=       -0.000001064251 Rises=F Damp=F
 DIIS: error= 1.47D-04 at cycle   2 NSaved=   2.
 NSaved= 2 IEnMin= 2 EnMin= -40.5018604409826     IErMin= 2 ErrMin= 1.47D-04
 ErrMax= 1.47D-04  0.00D+00 EMaxC= 1.00D-01 BMatC= 3.57D-07 BMatP= 3.71D-06
 IDIUse=3 WtCom= 9.99D-01 WtEn= 1.47D-03
 Coeff-Com:  0.189D+00 0.811D+00
 Coeff-En:   0.000D+00 0.100D+01
 Coeff:      0.188D+00 0.812D+00
 Gap=     0.678 Goal=   None    Shift=    0.000
 RMSDP=2.54D-05 MaxDP=2.27D-04 DE=-1.06D-06 OVMax= 2.46D-04

 Cycle   8  Pass 1  IDiag  1:
 E= -40.5018607333205     Delta-E=       -0.000000292338 Rises=F Damp=F
 DIIS: error= 5.47D-05 at cycle   3 NSaved=   3.
 NSaved= 3 IEnMin= 3 EnMin= -40.5018607333205     IErMin= 3 ErrMin= 5.47D-05
 ErrMax= 5.47D-05  0.00D+00 EMaxC= 1.00D-01 BMatC= 6.50D-08 BMatP= 3.57D-07
 IDIUse=1 WtCom= 1.00D+00 WtEn= 0.00D+00
 Coeff-Com: -0.749D-02 0.288D+00 0.720D+00
 Coeff:     -0.749D-02 0.288D+00 0.720D+00
 Gap=     0.678 Goal=   None    Shift=    0.000
 RMSDP=7.61D-06 MaxDP=7.26D-05 DE=-2.92D-07 OVMax= 6.78D-05

 Cycle   9  Pass 1  IDiag  1:
 E= -40.5018607939329     Delta-E=       -0.000000060612 Rises=F Damp=F
 DIIS: error= 1.98D-06 at cycle   4 NSaved=   4.
 NSaved= 4 IEnMin= 4 EnMin= -40.5018607939329     IErMin= 4 ErrMin= 1.98D-06
 ErrMax= 1.98D-06  0.00D+00 EMaxC= 1.00D-01 BMatC= 6.94D-11 BMatP= 6.50D-08
 IDIUse=1 WtCom= 1.00D+00 WtEn= 0.00D+00
 Coeff-Com: -0.118D-02-0.378D-01-0.818D-01 0.112D+01
 Coeff:     -0.118D-02-0.378D-01-0.818D-01 0.112D+01
 Gap=     0.678 Goal=   None    Shift=    0.000
 RMSDP=5.82D-07 MaxDP=5.14D-06 DE=-6.06D-08 OVMax= 6.13D-06

 Cycle  10  Pass 1  IDiag  1:
 E= -40.5018607940780     Delta-E=       -0.000000000145 Rises=F Damp=F
 DIIS: error= 2.95D-07 at cycle   5 NSaved=   5.
 NSaved= 5 IEnMin= 5 EnMin= -40.5018607940780     IErMin= 5 ErrMin= 2.95D-07
 ErrMax= 2.95D-07  0.00D+00 EMaxC= 1.00D-01 BMatC= 2.21D-12 BMatP= 6.94D-11
 IDIUse=1 WtCom= 1.00D+00 WtEn= 0.00D+00
 Coeff-Com: -0.510D-05-0.828D-02-0.209D-01 0.113D+00 0.916D+00
 Coeff:     -0.510D-05-0.828D-02-0.209D-01 0.113D+00 0.916D+00
 Gap=     0.678 Goal=   None    Shift=    0.000
 RMSDP=1.03D-07 MaxDP=7.27D-07 DE=-1.45D-10 OVMax= 7.60D-07

 Cycle  11  Pass 1  IDiag  1:
 E= -40.5018607940812     Delta-E=       -0.000000000003 Rises=F Damp=F
 DIIS: error= 4.39D-08 at cycle   6 NSaved=   6.
 NSaved= 6 IEnMin= 6 EnMin= -40.5018607940812     IErMin= 6 ErrMin= 4.39D-08
 ErrMax= 4.39D-08  0.00D+00 EMaxC= 1.00D-01 BMatC= 5.38D-14 BMatP= 2.21D-12
 IDIUse=1 WtCom= 1.00D+00 WtEn= 0.00D+00
 Coeff-Com:  0.482D-04 0.198D-02 0.405D-02-0.429D-01-0.115D+00 0.115D+01
 Coeff:      0.482D-04 0.198D-02 0.405D-02-0.429D-01-0.115D+00 0.115D+01
 Gap=     0.678 Goal=   None    Shift=    0.000
 RMSDP=3.39D-08 MaxDP=2.29D-07 DE=-3.20D-12 OVMax= 1.60D-07

 Cycle  12  Pass 1  IDiag  1:
 E= -40.5018607940814     Delta-E=       -0.000000000000 Rises=F Damp=F
 DIIS: error= 4.06D-09 at cycle   7 NSaved=   7.
 NSaved= 7 IEnMin= 7 EnMin= -40.5018607940814     IErMin= 7 ErrMin= 4.06D-09
 ErrMax= 4.06D-09  0.00D+00 EMaxC= 1.00D-01 BMatC= 3.64D-16 BMatP= 5.38D-14
 IDIUse=1 WtCom= 1.00D+00 WtEn= 0.00D+00
 Coeff-Com: -0.741D-05-0.315D-03-0.675D-03 0.734D-02 0.152D-01-0.212D+00
 Coeff-Com:  0.119D+01
 Coeff:     -0.741D-05-0.315D-03-0.675D-03 0.734D-02 0.152D-01-0.212D+00
 Coeff:      0.119D+01
 Gap=     0.678 Goal=   None    Shift=    0.000
 RMSDP=2.88D-09 MaxDP=1.19D-08 DE=-1.56D-13 OVMax= 1.32D-08

 SCF Done:  E(RwB97XD) =  -40.5018607941     A.U. after   12 cycles
            NFock= 12  Conv=0.29D-08     -V/T= 2.0108
 KE= 4.007101968695D+01 PE=-1.198565885947D+02 EE= 2.587824684888D+01
 Leave Link  502 at Wed Feb 26 13:35:11 2020, MaxMem=  2684354560 cpu:         4.3
 (Enter /soft/gaussian/09-e.01/g09/l508.exe)
 QCSCF skips out because SCF is already converged.
 Leave Link  508 at Wed Feb 26 13:35:11 2020, MaxMem=  2684354560 cpu:         0.0
 (Enter /soft/gaussian/09-e.01/g09/l801.exe)
 DoSCS=F DFT=T ScalE2(SS,OS)=  1.000000  1.000000
 Range of M.O.s used for correlation:     1    23
 NBasis=    23 NAE=     5 NBE=     5 NFC=     0 NFV=     0
 NROrb=     23 NOA=     5 NOB=     5 NVA=    18 NVB=    18
 Leave Link  801 at Wed Feb 26 13:35:11 2020, MaxMem=  2684354560 cpu:         0.2
 (Enter /soft/gaussian/09-e.01/g09/l1101.exe)
 Using compressed storage, NAtomX=     5.
 Will process      6 centers per pass.
 R6Disp: Adding Grimme-D2 dispersion energy 1st derivatives to the gradient.
 Leave Link 1101 at Wed Feb 26 13:35:12 2020, MaxMem=  2684354560 cpu:         1.7
 (Enter /soft/gaussian/09-e.01/g09/l1102.exe)
 Symmetrizing basis deriv contribution to polar:
 IMax=3 JMax=2 DiffMx= 0.00D+00
 Leave Link 1102 at Wed Feb 26 13:35:12 2020, MaxMem=  2684354560 cpu:         0.2
 (Enter /soft/gaussian/09-e.01/g09/l1110.exe)
 Forming Gx(P) for the SCF density, NAtomX=     5.
 Integral derivatives from FoFJK, PRISM(SPDF).
 Do as many integral derivatives as possible in FoFJK.
 G2DrvN: MDV=    2684354416.
 G2DrvN: will do     6 centers at a time, making    1 passes.
 Calling FoFCou, ICntrl=  3107 FMM=F I1Cent=   0 AccDes= 0.00D+00.
 FoFJK:  IHMeth= 1 ICntrl=    3107 DoSepK=T KAlg= 0 I1Cent=   0 FoldK=F
 IRaf=         1 NMat=   1 IRICut=       1 DoRegI=T DoRafI=F ISym2E= 1.
 FoFCou: FMM=F IPFlag=           0 FMFlag=      100000 FMFlg1=           0
         NFxFlg=           0 DoJE=F BraDBF=F KetDBF=F FulRan=T
         wScrn=  0.000000 ICntrl=    3507 IOpCl=  0 I1Cent=           0 NGrid=           0
         NMat0=    1 NMatS0=      1 NMatT0=    0 NMatD0=    1 NMtDS0=    0 NMtDT0=    0
 Petite list used in FoFCou.
 End of G2Drv F.D. properties file   721 does not exist.
 End of G2Drv F.D. properties file   722 does not exist.
 End of G2Drv F.D. properties file   788 does not exist.
 Leave Link 1110 at Wed Feb 26 13:35:12 2020, MaxMem=  2684354560 cpu:         3.6
 (Enter /soft/gaussian/09-e.01/g09/l1002.exe)
 Minotr:  Closed shell wavefunction.
          IDoAtm=11111
          Direct CPHF calculation.
          Differentiating once with respect to electric field.
                with respect to dipole field.
          Differentiating once with respect to nuclear coordinates.
          Using symmetry in CPHF.
          Requested convergence is 1.0D-08 RMS, and 1.0D-07 maximum.
          Secondary convergence is 1.0D-12 RMS, and 1.0D-12 maximum.
          NewPWx=T KeepS1=F KeepF1=F KeepIn=T MapXYZ=F SortEE=F KeepMc=T.
          MDV=    2684354483 using IRadAn=       4.
 Generate precomputed XC quadrature information.
 Keep R1 ints in memory in symmetry-blocked form, NReq=939735.
 FoFCou: FMM=F IPFlag=           0 FMFlag=           0 FMFlg1=           0
         NFxFlg=           0 DoJE=F BraDBF=F KetDBF=F FulRan=T
         wScrn=  0.000000 ICntrl=     600 IOpCl=  0 I1Cent=           0 NGrid=           0
         NMat0=    1 NMatS0=    276 NMatT0=    0 NMatD0=    1 NMtDS0=    0 NMtDT0=    0
 Petite list used in FoFCou.
          Solving linear equations simultaneously, MaxMat=       0.
          There are    12 degrees of freedom in the 1st order CPHF.  IDoFFX=4 NUNeed=    12.
     12 vectors produced by pass  0 Test12= 7.50D-16 8.33D-09 XBig12= 3.64D+00 1.28D+00.
 AX will form    12 AO Fock derivatives at one time.
     12 vectors produced by pass  1 Test12= 7.50D-16 8.33D-09 XBig12= 5.94D-02 1.31D-01.
     12 vectors produced by pass  2 Test12= 7.50D-16 8.33D-09 XBig12= 1.69D-04 5.62D-03.
     12 vectors produced by pass  3 Test12= 7.50D-16 8.33D-09 XBig12= 6.66D-07 3.01D-04.
     12 vectors produced by pass  4 Test12= 7.50D-16 8.33D-09 XBig12= 6.42D-10 1.23D-05.
      7 vectors produced by pass  5 Test12= 7.50D-16 8.33D-09 XBig12= 5.10D-13 4.06D-07.
      3 vectors produced by pass  6 Test12= 7.50D-16 8.33D-09 XBig12= 4.65D-16 9.19D-09.
 InvSVY:  IOpt=1 It=  1 EMax= 1.11D-15
 Solved reduced A of dimension    70 with    12 vectors.
 FullF1:  Do perturbations    1 to    12.
 Isotropic polarizability for W=    0.000000       12.47 Bohr**3.
 End of Minotr F.D. properties file   721 does not exist.
 End of Minotr F.D. properties file   722 does not exist.
 End of Minotr F.D. properties file   788 does not exist.
 Leave Link 1002 at Wed Feb 26 13:35:13 2020, MaxMem=  2684354560 cpu:         6.1
 (Enter /soft/gaussian/09-e.01/g09/l601.exe)
 Copying SCF densities to generalized density rwf, IOpCl= 0 IROHF=0.

 **********************************************************************

            Population analysis using the SCF density.

 **********************************************************************

 Orbital symmetries:
       Occupied  (A1) (A1) (E) (E) (A1)
       Virtual   (A1) (A1) (E) (E) (E) (E) (A1) (A1) (E) (E) (A1)
                 (A1) (E) (E) (A1) (E) (E) (A1)
 The electronic state is 1-A1.
 Alpha  occ. eigenvalues --  -10.27533  -0.78732  -0.47255  -0.47255  -0.47242
 Alpha virt. eigenvalues --    0.20544   0.26122   0.26142   0.26142   0.62257
 Alpha virt. eigenvalues --    0.62257   0.62279   0.99827   0.99871   0.99871
 Alpha virt. eigenvalues --    1.04867   1.18747   1.73936   1.73936   2.33600
 Alpha virt. eigenvalues --    2.33684   2.33684   4.28127
          Condensed to atoms (all electrons):
               1          2          3          4          5
     1  C    5.160125   0.383748   0.383830   0.383830   0.383830
     2  H    0.383748   0.516291  -0.024571  -0.024571  -0.024571
     3  H    0.383830  -0.024571   0.516040  -0.024598  -0.024598
     4  H    0.383830  -0.024571  -0.024598   0.516040  -0.024598
     5  H    0.383830  -0.024571  -0.024598  -0.024598   0.516040
 Mulliken charges:
               1
     1  C   -0.695364
     2  H    0.173675
     3  H    0.173896
     4  H    0.173896
     5  H    0.173896
 Sum of Mulliken charges =  -0.00000
 Mulliken charges with hydrogens summed into heavy atoms:
               1
     1  C   -0.000000
 APT charges:
               1
     1  C   -0.025962
     2  H    0.006392
     3  H    0.006496
     4  H    0.006516
     5  H    0.006516
 Sum of APT charges =  -0.00004
 APT charges with hydrogens summed into heavy atoms:
               1
     1  C   -0.000042
 Electronic spatial extent (au):  <R**2>=             35.3519
 Charge=             -0.0000 electrons
 Dipole moment (field-independent basis, Debye):
    X=              0.0000    Y=             -0.0000    Z=              0.0005  Tot=              0.0005
 Quadrupole moment (field-independent basis, Debye-Ang):
   XX=             -8.2075   YY=             -8.2075   ZZ=             -8.2070
   XY=             -0.0000   XZ=             -0.0000   YZ=             -0.0000
 Traceless Quadrupole moment (field-independent basis, Debye-Ang):
   XX=             -0.0002   YY=             -0.0002   ZZ=              0.0003
   XY=             -0.0000   XZ=             -0.0000   YZ=             -0.0000
 Octapole moment (field-independent basis, Debye-Ang**2):
  XXX=              0.0000  YYY=              0.6145  ZZZ=             -0.8680  XYY=              0.0000
  XXY=             -0.6145  XXZ=              0.4356  XZZ=              0.0000  YZZ=              0.0000
  YYZ=              0.4356  XYZ=             -0.0000
 Hexadecapole moment (field-independent basis, Debye-Ang**3):
 XXXX=            -14.8718 YYYY=            -14.8718 ZZZZ=            -14.6411 XXXY=              0.0000
 XXXZ=              0.0000 YYYX=              0.0000 YYYZ=              0.3396 ZZZX=              0.0000
 ZZZY=              0.0000 XXYY=             -4.9573 XXZZ=             -5.1996 YYZZ=             -5.1996
 XXYZ=             -0.3396 YYXZ=              0.0000 ZZXY=              0.0000
 N-N= 1.340546126483D+01 E-N=-1.198565886134D+02  KE= 4.007101968695D+01
 Symmetry A'   KE= 3.814367328812D+01
 Symmetry A"   KE= 1.927346398826D+00
  Exact polarizability:  12.463  -0.000  12.463   0.000   0.000  12.477
 Approx polarizability:  11.382  -0.000  11.382  -0.000  -0.000  11.394
 No NMR shielding tensors so no spin-rotation constants.
 Leave Link  601 at Wed Feb 26 13:35:13 2020, MaxMem=  2684354560 cpu:         1.7
 (Enter /soft/gaussian/09-e.01/g09/l701.exe)
 Compute integral second derivatives.
 ... and contract with generalized density number  0.
 R6Disp: Adding Grimme-D2 dispersion energy 2nd derivatives to the Hessian.
 Leave Link  701 at Wed Feb 26 13:35:13 2020, MaxMem=  2684354560 cpu:         1.8
 (Enter /soft/gaussian/09-e.01/g09/l702.exe)
 L702 exits ... SP integral derivatives will be done elsewhere.
 Leave Link  702 at Wed Feb 26 13:35:13 2020, MaxMem=  2684354560 cpu:         0.2
 (Enter /soft/gaussian/09-e.01/g09/l703.exe)
 Compute integral second derivatives, UseDBF=F ICtDFT=           0.
 Integral derivatives from FoFJK, PRISM(SPDF).
 Calling FoFJK, ICntrl=    100127 FMM=F ISym2X=1 I1Cent= 0 IOpClX= 0 NMat=1 NMatS=1 NMatT=0.
 FoFJK:  IHMeth= 1 ICntrl=  100127 DoSepK=T KAlg= 0 I1Cent=   0 FoldK=F
 IRaf=         1 NMat=   1 IRICut=       1 DoRegI=T DoRafI=F ISym2E= 1.
 FoFCou: FMM=F IPFlag=           0 FMFlag=      100000 FMFlg1=         800
         NFxFlg=           0 DoJE=F BraDBF=F KetDBF=F FulRan=T
         wScrn=  0.000000 ICntrl=  100527 IOpCl=  0 I1Cent=           0 NGrid=           0
         NMat0=    1 NMatS0=      1 NMatT0=    0 NMatD0=    1 NMtDS0=    0 NMtDT0=    0
 Petite list used in FoFCou.
 Leave Link  703 at Wed Feb 26 13:35:14 2020, MaxMem=  2684354560 cpu:         6.6
 (Enter /soft/gaussian/09-e.01/g09/l716.exe)
 Dipole        = 2.19442520D-16-2.81892565D-17 2.14271319D-04
 Polarizability= 1.24628972D+01-1.64139813D-11 1.24631940D+01
                 6.37467856D-12 4.47479128D-04 1.24768870D+01
 Full mass-weighted force constant matrix:
 Low frequencies ---  -57.6535  -39.2440  -37.6166   -0.0139    0.3549    1.0838
 Low frequencies --- 1377.1050 1377.6894 1377.7016
 Diagonal vibrational polarizability:
        0.3330635       0.3331225       0.3326532
 Harmonic frequencies (cm**-1), IR intensities (KM/Mole), Raman scattering
 activities (A**4/AMU), depolarization ratios for plane and unpolarized
 incident light, reduced masses (AMU), force constants (mDyne/A),
 and normal coordinates:
                      1                      2                      3
                     ?A                     ?A                     ?A
 Frequencies --   1377.1050              1377.6884              1377.7006
 Red. masses --      1.1784                 1.1783                 1.1783
 Frc consts  --      1.3167                 1.3176                 1.3177
 IR Inten    --     18.9401                19.0295                19.0339
  Atom  AN      X      Y      Z        X      Y      Z        X      Y      Z
     1   6    -0.00  -0.00  -0.12    -0.12   0.00   0.00    -0.00  -0.12   0.00
     2   1     0.00   0.01  -0.10     0.60  -0.00   0.00     0.00   0.60   0.00
     3   1     0.00  -0.22   0.52     0.60   0.00   0.00     0.00  -0.02  -0.23
     4   1     0.19   0.12   0.53     0.14  -0.27   0.19    -0.27   0.45   0.10
     5   1    -0.19   0.12   0.53     0.14   0.27  -0.19     0.27   0.45   0.10
                      4                      5                      6
                      E                      E                     A1
 Frequencies --   1597.7685              1597.7704              3067.3713
 Red. masses --      1.0078                 1.0078                 1.0079
 Frc consts  --      1.5159                 1.5159                 5.5873
 IR Inten    --      0.0001                 0.0000                 0.0245
  Atom  AN      X      Y      Z        X      Y      Z        X      Y      Z
     1   6    -0.00  -0.00   0.00    -0.00   0.00  -0.00     0.00  -0.00  -0.00
     2   1     0.00   0.50   0.00     0.50  -0.00  -0.00     0.00  -0.00   0.53
     3   1    -0.00   0.17  -0.47    -0.50  -0.00   0.00     0.00  -0.46  -0.16
     4   1     0.29  -0.33   0.24     0.00   0.29   0.41     0.40   0.23  -0.16
     5   1    -0.29  -0.33   0.24     0.00  -0.29  -0.41    -0.40   0.23  -0.16
                      7                      8                      9
                     A1                      E                      E
 Frequencies --   3187.0502              3193.8611              3193.8625
 Red. masses --      1.1021                 1.1023                 1.1023
 Frc consts  --      6.5953                 6.6248                 6.6248
 IR Inten    --     24.0853                23.9759                23.9771
  Atom  AN      X      Y      Z        X      Y      Z        X      Y      Z
     1   6     0.00  -0.00  -0.09    -0.09  -0.00  -0.00     0.00  -0.09   0.00
     2   1     0.00  -0.00   0.84    -0.02  -0.00   0.00     0.00  -0.02  -0.00
     3   1     0.00   0.29   0.09    -0.02   0.00   0.00     0.00   0.76   0.28
     4   1    -0.25  -0.15   0.09     0.57   0.34  -0.24     0.34   0.18  -0.14
     5   1     0.25  -0.15   0.09     0.57  -0.34   0.24    -0.34   0.18  -0.14

 -------------------
 - Thermochemistry -
 -------------------
 Temperature   298.150 Kelvin.  Pressure   1.00000 Atm.
 Atom     1 has atomic number  6 and mass  12.00000
 Atom     2 has atomic number  1 and mass   1.00783
 Atom     3 has atomic number  1 and mass   1.00783
 Atom     4 has atomic number  1 and mass   1.00783
 Atom     5 has atomic number  1 and mass   1.00783
 Molecular mass:    16.03130 amu.
 Principal axes and moments of inertia in atomic units:
                           1         2         3
     Eigenvalues --    11.44872  11.45500  11.45500
           X            0.00000   0.74542   0.66660
           Y            0.00000  -0.66660   0.74542
           Z            1.00000  -0.00000  -0.00000
 This molecule is a prolate symmetric top.
 Rotational symmetry number  3.
 Rotational temperatures (Kelvin)      7.56537     7.56122     7.56122
 Rotational constants (GHZ):         157.63701   157.55054   157.55054
 Zero-point vibrational energy     119448.2 (Joules/Mol)
                                   28.54880 (Kcal/Mol)
 Vibrational temperatures:   1981.34  1982.18  1982.20  2298.83  2298.83
          (Kelvin)           4413.26  4585.45  4595.25  4595.25
 
 Zero-point correction=                           0.045495 (Hartree/Particle)
 Thermal correction to Energy=                    0.048359
 Thermal correction to Enthalpy=                  0.049303
 Thermal correction to Gibbs Free Energy=         0.026866
 Sum of electronic and zero-point Energies=            -40.456365
 Sum of electronic and thermal Energies=               -40.453502
 Sum of electronic and thermal Enthalpies=             -40.452558
 Sum of electronic and thermal Free Energies=          -40.474995
 
                     E (Thermal)             CV                S
                      KCal/Mol        Cal/Mol-Kelvin    Cal/Mol-Kelvin
 Total                   30.346              6.411             47.224
 Electronic               0.000              0.000              0.000
 Translational            0.889              2.981             34.261
 Rotational               0.889              2.981             12.888
 Vibrational             28.568              0.449              0.075
                       Q            Log10(Q)             Ln(Q)
 Total Bot       0.439234D-12        -12.357304        -28.453745
 Total V=0       0.370756D+09          8.569088         19.731055
 Vib (Bot)       0.119039D-20        -20.924311        -48.180007
 Vib (V=0)       0.100480D+01          0.002081          0.004792
 Electronic      0.100000D+01          0.000000          0.000000
 Translational   0.252295D+07          6.401908         14.740939
 Rotational      0.146251D+03          2.165099          4.985324

 **********************************************************************

                  Harmonic vibro-rotational analysis

 **********************************************************************


     ==================================================
               Analysis of the Rotor Symmetry
     ==================================================

 Framework Group : C3V 
 Rotor Type      : Prolate Symmetric Top
 Representation  : Ir Representation, Iz < Ix < Iy

 For representation A1  
    Z Translation
    5 Vibrations with frequencies:
   3187.05   3067.37   1377.70   1377.69   1377.11
 For representation A2  
    Z Rotation
 No Vibration
 For representation E    (doubly degenerate)
    X Translation
    Y Translation
    X Rotation
    Y Rotation
    2 Vibrations with frequencies:
   3193.86   1597.77

 Input/Output information
 ------------------------
 Normal modes will be PRINTED in DESCENDING order (imag. freq. first)
   and sorted by irreducible representation
 The connection between this new numbering (A) and the one used before
   (H) is reported in the present equivalency table:
 ----+------+------+------+------+------+------+------+------+------+
 (H) |     1|     2|     3|     4|     5|     6|     7|     8|     9|
 (A) |     5|     4|     3|     7|     7|     2|     1|     6|     6|
 ----+------+------+------+------+------+------+------+------+------+
 NOTE: Degenerate modes are referenced by the same number

 Normal modes will be READ in ASCENDING order (imag. freq. first)

 Analysis of symmetry-allowed terms
----------------------------------

     ==================================================
                   Coriolis Couplings
     ==================================================

 Coriolis Couplings along the X axis
 -----------------------------------
               1             2             3             4             5 
     1   0.000000D+00
     2   0.000000D+00  0.000000D+00
     3  -0.723671D+00 -0.226440D-01  0.000000D+00
     4   0.000000D+00  0.000000D+00  0.000000D+00  0.000000D+00
     5  -0.831770D-02  0.000000D+00  0.442897D+00  0.000000D+00  0.000000D+00
     6a  0.000000D+00  0.000000D+00  0.000000D+00  0.000000D+00  0.000000D+00
     6b  0.577529D-01  0.184828D-02 -0.795372D-02  0.000000D+00  0.724899D+00
     7a -0.561246D+00 -0.175134D-01 -0.299948D+00  0.000000D+00 -0.434158D+00
     7b  0.000000D+00  0.000000D+00  0.000000D+00  0.305078D+00  0.000000D+00
               6a            6b            7a            7b
     6a  0.000000D+00
     6b  0.000000D+00  0.000000D+00
     7a  0.000000D+00 -0.396124D+00  0.000000D+00
     7b  0.396314D+00  0.000000D+00  0.000000D+00  0.000000D+00

 Coriolis Couplings along the Y axis
 -----------------------------------
               1             2             3             4             5 
     1   0.000000D+00
     2   0.000000D+00  0.000000D+00
     3   0.000000D+00  0.000000D+00  0.000000D+00
     4   0.723730D+00  0.226459D-01 -0.523785D-02  0.000000D+00
     5   0.000000D+00  0.000000D+00  0.000000D+00 -0.442846D+00  0.000000D+00
     6a -0.577477D-01 -0.184801D-02  0.895088D-02  0.000000D+00 -0.724906D+00
     6b  0.000000D+00  0.000000D+00  0.000000D+00  0.000000D+00  0.000000D+00
     7a  0.000000D+00  0.000000D+00  0.000000D+00 -0.305086D+00  0.000000D+00
     7b  0.560941D+00  0.175081D-01 -0.310159D+00  0.000000D+00  0.426938D+00
               6a            6b            7a            7b
     6a  0.000000D+00
     6b  0.000000D+00  0.000000D+00
     7a -0.396297D+00  0.000000D+00  0.000000D+00
     7b  0.000000D+00 -0.396519D+00  0.000000D+00  0.000000D+00

 Coriolis Couplings along the Z axis
 -----------------------------------
               1             2             3             4             5 
     1   0.000000D+00
     2   0.000000D+00  0.000000D+00
     3   0.000000D+00  0.000000D+00  0.000000D+00
     4   0.000000D+00  0.000000D+00 -0.440847D+00  0.000000D+00
     5   0.000000D+00  0.000000D+00  0.000000D+00  0.523188D-02  0.000000D+00
     6a  0.000000D+00  0.000000D+00  0.725771D+00  0.000000D+00  0.858253D-02
     6b  0.000000D+00  0.000000D+00  0.000000D+00 -0.725814D+00  0.000000D+00
     7a  0.000000D+00  0.000000D+00  0.000000D+00 -0.431555D+00  0.000000D+00
     7b  0.000000D+00  0.000000D+00  0.431521D+00  0.000000D+00  0.511056D-02
               6a            6b            7a            7b
     6a  0.000000D+00
     6b -0.577873D-01  0.000000D+00
     7a -0.559420D+00  0.000000D+00  0.000000D+00
     7b  0.000000D+00  0.559430D+00  0.106084D-02  0.000000D+00

   15 Coriolis couplings larger than .100D-02 along the X axis
   15 Coriolis couplings larger than .100D-02 along the Y axis
   12 Coriolis couplings larger than .100D-02 along the Z axis

     ==================================================
          Derivatives of the Inertia Moments w.r.t
                Normal modes (in amu^1/2.Ang)
     ==================================================

              Ixx        Ixy        Iyy        Ixz        Iyz        Izz
 Q(  1)    -0.72772   -0.00000   -0.72857    0.00000   -0.00031    1.73035
 Q(  2)    -2.94912   -0.00000   -2.94913    0.00000   -0.00001   -2.87080
 Q(  3)    -0.90034   -0.00000    0.88540    0.00000    0.62908    0.01493
 Q(  4)     0.00000   -0.89291   -0.00000    0.62914   -0.00000    0.00000
 Q(  5)     0.61980   -0.00000    0.64090    0.00000    0.00749   -1.26018
 Q(  6)     0.00000    1.15873   -0.00000   -0.81901   -0.00000    0.00000
 Q(  7)     1.03245    0.00000   -1.03248    0.00000    1.46327    0.00003

     ==================================================
               Vibro-rotational Alpha Matrix
     ==================================================

 Vibro-Rot alpha Matrix (in cm^-1)
 ---------------------------------
                a(z)           b(x)           c(y)
 Q( 1)       -0.01215        0.01636       -0.06143
 Q( 2)       -0.03476       -0.03665       -0.03668
 Q( 3)    -1756.88328       -0.25880      -36.30820
 Q( 4)     1757.00528      -36.81339       -0.01119
 Q( 5)       -0.00972       37.17748       36.47770
 Q( 6)       -0.03231       -0.05615       -0.00814
 Q( 7)       -0.05171       -0.04307       -0.06597

 Vibro-Rot alpha Matrix (in MHz)
 -------------------------------
                 a              b              c 
 Q( 1)     -364.34107      490.48478    -1841.72430
 Q( 2)    -1041.99673    -1098.85241    -1099.67456
 Q( 3)-52670035.68013    -7758.64342 -1088492.32685
 Q( 4) 52673693.06749 -1103637.53766     -335.36906
 Q( 5)     -291.48839  1114552.82769  1093573.88703
 Q( 6)     -968.69438    -1683.31690     -244.12650
 Q( 7)    -1550.31904    -1291.33004    -1977.70001

     ==================================================
          Quartic Centrifugal Distortion Constants
     ==================================================

 NOTE: Values in Cartesian coords. refer to the structure in Input orientation


 Quartic Centrifugal Distortion Constants Tau Prime
 --------------------------------------------------
                      cm^-1                    MHz
 TauP aaaa     -0.3642717740D-03        -0.1092059305D+02
 TauP bbaa     -0.4679950714D-03        -0.1403013928D+02
 TauP bbbb     -0.3901114802D-03        -0.1169524795D+02
 TauP ccaa     -0.4679965127D-03        -0.1403018249D+02
 TauP ccbb     -0.3901114757D-03        -0.1169524782D+02
 TauP cccc     -0.3901104532D-03        -0.1169521717D+02

 Constants in the Symmetrically Reduced Hamiltonian
 --------------------------------------------------
                    cm^-1                     MHz
  D J  :    0.9752789566D-04         0.2923812756D+01
  D JK :    0.3894161601D-04         0.1167440278D+01
  D K  :   -0.4540156818D-04        -0.1361104772D+01
  d 1  :   -0.6418731671D-10        -0.1924287345D-05
  d 2  :    0.7699367081D-10         0.2308212182D-05


 Effective Rotational Constants
 (Include Terms due to Quartic Centrifugal Distortion Constants)
 ---------------------------------------------------------------
           Be in cm^-1             B(S) in cm^-1            B(S) in MHz
 a          5.258204567             5.258204566             157637.00715
 b          5.255320180             5.255320180             157550.53545
 c          5.255320180             5.255320179             157550.53542

 Wilson Centrifugal Distortion Constants
 ---------------------------------------
                cm^-1                    MHz
 DJ     0.9752787004D-04         0.2923811988D+01
 DJK    0.3894179561D-04         0.1167445663D+01
 DK    -0.4540172216D-04        -0.1361109389D+01

 Nielsen Centrifugal Distortion Constants
 ----------------------------------------
                cm^-1                    MHz
 DJ     0.9752777348D-04         0.2923809094D+01
 DJK    0.3894234905D-04         0.1167462254D+01
 DK    -0.4540217904D-04        -0.1361123085D+01
 dJ     0.6418731671D-10         0.1924287345D-05
 R5     0.1221731529D-09         0.3662658980D-05
 R6     0.1590709438D-10         0.4768826925D-06

 Test of Wilson Centrifugal Distortion Planarity Relations
 2*DJ + 3*DJK + 4*DK = 0 
   Value =     0.1302742383D-03

     ==================================================
       Average Coordinates and Mean Square Amplitudes
     ==================================================

 NOTE: Temperature is given in K between parentheses
       For Cartesian and internal coords., units are given between
       parentheses next to each label

 Mean Square Amplitudes of Normal Coordinates (in amu.bohr^2)
 -----------------------------------------------------------
 Mode    <Q^2> (0)    <Q^2> (298.15)    <Q^2> (298.15) class.
    1     0.018889       0.018889          0.096972
    2     0.019626       0.019626          0.104687
    3     0.043696       0.043809          0.518939
    4     0.043696       0.043810          0.518948
    5     0.043715       0.043828          0.519388
    6     0.018849       0.018849          0.096559
    7     0.037677       0.037711          0.385832
    8     0.018849       0.018849          0.096559
    9     0.037677       0.037711          0.385831

 Mean Square Amplitudes of Cartesian Coordinates
 -----------------------------------------------
    Label        <(S-Se)^2>^1/2 (0)    <(S-Se)^2>^1/2 (298.15)
 X(1)  (Angs)        0.014219              0.014234
 Y(1)  (Angs)        0.014219              0.014233
 Z(1)  (Angs)        0.014226              0.014241
 X(2)  (Angs)        0.080002              0.080078
 Y(2)  (Angs)        0.080002              0.080078
 Z(2)  (Angs)        0.070913              0.070914
 X(3)  (Angs)        0.080040              0.080116
 Y(3)  (Angs)        0.071897              0.071908
 Z(3)  (Angs)        0.079081              0.079150
 X(4)  (Angs)        0.074017              0.074046
 Y(4)  (Angs)        0.078084              0.078145
 Z(4)  (Angs)        0.079081              0.079150
 X(5)  (Angs)        0.074017              0.074046
 Y(5)  (Angs)        0.078084              0.078145
 Z(5)  (Angs)        0.079081              0.079150
 
                                                               comment:
                                                             IR Spectrum
 
     33    3                                                         1       11                                                      
     11    0                                                         5       33                                                      
     98    6                                                         9       77                                                      
     47    7                                                         8       87                                                      
 
     XX                                                                      XX                                                      
     XX                                                                      XX                                                      
     XX                                                                      XX                                                      
     XX                                                                      XX                                                      
     XX                                                                      XX                                                      
     XX                                                                      XX                                                      
     XX                                                                      XX                                                      
     XX                                                                      XX                                                      
     XX                                                                      X                                                       
     XX                                                                      X                                                       
     X                                                                       X                                                       
     X                                                                       X                                                       
     X                                                                       X                                                       
     X                                                                       X                                                       
     X                                                                       X                                                       
     X                                                                       X                                                       
     X                                                                                                                               
     X                                                                                                                               
     X                                                                                                                               
     X                                                                                                                               
 
 ***** Axes restored to original set *****
 -------------------------------------------------------------------
 Center     Atomic                   Forces (Hartrees/Bohr)
 Number     Number              X              Y              Z
 -------------------------------------------------------------------
      1        6           0.000000000   -0.000000000    0.000496383
      2        1          -0.000000000    0.000000000   -0.000306763
      3        1           0.000217002    0.000000000   -0.000063207
      4        1          -0.000108501   -0.000187929   -0.000063207
      5        1          -0.000108501    0.000187929   -0.000063207
 -------------------------------------------------------------------
 Cartesian Forces:  Max     0.000496383 RMS     0.000181430
 -----------------------------------------------------------------------------------------------
                       Internal Coordinate Forces (Hartree/Bohr or radian)
  Cent   Atom   N1       Length/X         N2         Alpha/Y        N3         Beta/Z          J
 -----------------------------------------------------------------------------------------------
      1  C 
      2  H        1  -0.000307(     1)
      3  H        1   0.000226(     2)      2  -0.000026(     5)
      4  H        1   0.000226(     3)      2  -0.000026(     6)      3   0.000000(     8)     0
      5  H        1   0.000226(     4)      2  -0.000026(     7)      3  -0.000000(     9)     0
 -----------------------------------------------------------------------------------------------
 Internal  Forces:  Max     0.000306763 RMS     0.000166315
 Force constants in Cartesian coordinates: 
                1             2             3             4             5 
      1  0.569445D+00
      2  0.000000D+00  0.569435D+00
      3  0.488075D-05  0.000000D+00  0.567094D+00
      4 -0.488146D-01  0.000000D+00 -0.514544D-05  0.470918D-01
      5  0.000000D+00 -0.488109D-01  0.000000D+00  0.000000D+00  0.470961D-01
      6 -0.140732D-05  0.000000D+00 -0.327573D+00  0.141440D-05  0.000000D+00
      7 -0.298417D+00  0.000000D+00  0.882504D-01  0.280501D-02  0.000000D+00
      8  0.000000D+00 -0.486617D-01  0.000000D+00  0.000000D+00 -0.165846D-02
      9  0.882750D-01  0.000000D+00 -0.798374D-01  0.328639D-01  0.000000D+00
     10 -0.111104D+00 -0.108143D+00 -0.441251D-01 -0.541863D-03  0.193291D-02
     11 -0.108147D+00 -0.235980D+00 -0.764280D-01  0.193260D-02  0.168790D-02
     12 -0.441384D-01 -0.764492D-01 -0.798396D-01 -0.164310D-01 -0.284586D-01
     13 -0.111104D+00  0.108143D+00 -0.441251D-01 -0.541863D-03 -0.193291D-02
     14  0.108147D+00 -0.235980D+00  0.764280D-01 -0.193260D-02  0.168790D-02
     15 -0.441384D-01  0.764492D-01 -0.798396D-01 -0.164310D-01  0.284586D-01
                6             7             8             9            10 
      6  0.352702D+00
      7 -0.130398D-02  0.320531D+00
      8  0.000000D+00  0.000000D+00  0.469545D-01
      9 -0.837740D-02 -0.966786D-01  0.000000D+00  0.811084D-01
     10  0.651988D-03 -0.124604D-01 -0.262103D-01 -0.122306D-01  0.115349D+00
     11  0.112966D-02  0.171212D-02  0.168368D-02  0.144251D-02  0.118462D+00
     12 -0.837671D-02  0.486603D-02  0.113132D-01  0.355320D-02  0.483393D-01
     13  0.651988D-03 -0.124604D-01  0.262103D-01 -0.122306D-01  0.875570D-02
     14 -0.112966D-02 -0.171212D-02  0.168368D-02 -0.144251D-02  0.139612D-01
     15 -0.837671D-02  0.486603D-02 -0.113132D-01  0.355320D-02  0.736453D-02
               11            12            13            14            15 
     11  0.252137D+00
     12  0.837261D-01  0.811084D-01
     13 -0.139612D-01  0.736453D-02  0.115349D+00
     14 -0.195324D-01  0.987072D-02 -0.118462D+00  0.252137D+00
     15 -0.987072D-02  0.355320D-02  0.483393D-01 -0.837261D-01  0.811084D-01
 Force constants in internal coordinates: 
                1             2             3             4             5 
      1  0.352702D+00
      2  0.156306D-02  0.354695D+00
      3  0.156252D-02  0.155626D-02  0.354695D+00
      4  0.156252D-02  0.155626D-02  0.155626D-02  0.354695D+00
      5  0.171989D-01 -0.883033D-04 -0.858608D-02 -0.858608D-02  0.200447D+00
      6  0.171978D-01 -0.858608D-02 -0.883033D-04 -0.858608D-02  0.287306D-01
      7  0.171978D-01 -0.858608D-02 -0.858608D-02 -0.883033D-04  0.287306D-01
      8  0.000000D+00  0.140298D-01  0.000000D+00 -0.140298D-01 -0.584315D-01
      9  0.000000D+00 -0.140298D-01  0.140298D-01  0.000000D+00  0.584315D-01
                6             7             8             9 
      6  0.200447D+00
      7  0.287306D-01  0.200447D+00
      8  0.000000D+00  0.584315D-01  0.178221D+00
      9 -0.584315D-01  0.000000D+00 -0.891392D-01  0.178221D+00
 Leave Link  716 at Wed Feb 26 13:35:14 2020, MaxMem=  2684354560 cpu:         0.3
 (Enter /soft/gaussian/09-e.01/g09/l106.exe)
 NDeriv=   9 NFrqRd=  0 NDerD0=   0 MskFDP=       0 MskDFD=       0 MskDF0=       0
 At 1st pt F.D. properties file   721 does not exist.
 At 1st pt F.D. properties file   722 does not exist.
 D2Numr ... symmetry will not be used.
 Leave Link  106 at Wed Feb 26 13:35:14 2020, MaxMem=  2684354560 cpu:         0.4
 (Enter /soft/gaussian/09-e.01/g09/l301.exe)
 Standard basis: 6-31G(d) (6D, 7F)
 Ernie: Thresh=  0.10000D-02 Tol=  0.10000D-05 Strict=F.
    23 basis functions,    44 primitive gaussians,    23 cartesian basis functions
     5 alpha electrons        5 beta electrons
       nuclear repulsion energy        13.4057230727 Hartrees.
 IExCor= 4639 DFT=T Ex+Corr=wB97XD ExCW=0 ScaHFX=  1.000000
 ScaDFX=  1.000000  1.000000  1.000000  1.000000 ScalE2=  1.000000  1.000000
 IRadAn=      5 IRanWt=     -1 IRanGd=            0 ICorTp=0 IEmpDi=121
  HFx wShort=  0.000000 wLong=  0.200000 cFull=  0.222036 cShort=  0.000000 cLong=  0.777964
  DFx wShort=  0.000000 wLong=  0.200000 cFull=  0.000000 cShort=  0.000000 cLong=  1.000000
 NAtoms=    5 NActive=    5 NUniq=    5 SFac= 1.00D+00 NAtFMM=   60 NAOKFM=F Big=F
 Integral buffers will be    131072 words long.
 Raffenetti 2 integral format.
 Two-electron integral symmetry is turned off.
 R6Disp:  Grimme-D2 Dispersion energy=       -0.0004024222 Hartrees.
 Nuclear repulsion after empirical dispersion term =       13.4053206506 Hartrees.
 Leave Link  301 at Wed Feb 26 13:35:14 2020, MaxMem=  2684354560 cpu:         0.4
 (Enter /soft/gaussian/09-e.01/g09/l302.exe)
 NPDir=0 NMtPBC=     1 NCelOv=     1 NCel=       1 NClECP=     1 NCelD=      1
         NCelK=      1 NCelE2=     1 NClLst=     1 CellRange=     0.0.
 One-electron integrals computed using PRISM.
 NBasis=    23 RedAO= T EigKep=  1.79D-02  NBF=    23
 NBsUse=    23 1.00D-06 EigRej= -1.00D+00 NBFU=    23
 Precomputing XC quadrature grid using
 IXCGrd= 4 IRadAn=           5 IRanWt=          -1 IRanGd=           0 AccXCQ= 0.00D+00.
 Generated NRdTot=       0 NPtTot=           0 NUsed=           0 NTot=          32
 NSgBfM=    23    23    23    23    23 MxSgAt=     5 MxSgA2=     5.
 Leave Link  302 at Wed Feb 26 13:35:14 2020, MaxMem=  2684354560 cpu:         1.5
 (Enter /soft/gaussian/09-e.01/g09/l303.exe)
 DipDrv:  MaxL=1.
 Leave Link  303 at Wed Feb 26 13:35:14 2020, MaxMem=  2684354560 cpu:         0.2
 (Enter /soft/gaussian/09-e.01/g09/l401.exe)
 Initial guess from the checkpoint file:  "/scratch/kmoore/Gau-110384.chk"
 B after Tr=    -0.000000   -0.000015   -0.001281
         Rot=    1.000000   -0.000000    0.000000   -0.000000 Ang=   0.00 deg.
 Guess basis will be translated and rotated to current coordinates.
 JPrj=2 DoOrth=T DoCkMO=T.
 Leave Link  401 at Wed Feb 26 13:35:14 2020, MaxMem=  2684354560 cpu:         0.5
 (Enter /soft/gaussian/09-e.01/g09/l502.exe)
 Closed shell SCF:
 Using DIIS extrapolation, IDIIS=  1040.
 Two-electron integral symmetry not used.
 Keep R1 ints in memory in canonical form, NReq=946385.
 IVT=        7907 IEndB=        7907 NGot=  2684354560 MDV=  2684270202
 LenX=  2684270202 LenY=  2684269232
 Requested convergence on RMS density matrix=1.00D-08 within  64 cycles.
 Requested convergence on MAX density matrix=1.00D-06.
 Requested convergence on             energy=1.00D-06.
 No special actions if energy rises.
 FoFCou: FMM=F IPFlag=           0 FMFlag=           0 FMFlg1=           0
         NFxFlg=           0 DoJE=F BraDBF=F KetDBF=F FulRan=T
         wScrn=  0.000000 ICntrl=     600 IOpCl=  0 I1Cent=           0 NGrid=           0
         NMat0=    1 NMatS0=    276 NMatT0=    0 NMatD0=    1 NMtDS0=    0 NMtDT0=    0
 Symmetry not used in FoFCou.

 Cycle   1  Pass 1  IDiag  1:
 E= -40.5018436272320    
 DIIS: error= 3.71D-04 at cycle   1 NSaved=   1.
 NSaved= 1 IEnMin= 1 EnMin= -40.5018436272320     IErMin= 1 ErrMin= 3.71D-04
 ErrMax= 3.71D-04  0.00D+00 EMaxC= 1.00D-01 BMatC= 3.57D-06 BMatP= 3.57D-06
 IDIUse=3 WtCom= 9.96D-01 WtEn= 3.71D-03
 Coeff-Com:  0.100D+01
 Coeff-En:   0.100D+01
 Coeff:      0.100D+01
 Gap=     2.415 Goal=   None    Shift=    0.000
 RMSDP=7.57D-05 MaxDP=3.15D-04              OVMax= 7.27D-04

 Cycle   2  Pass 1  IDiag  1:
 E= -40.5018480470004     Delta-E=       -0.000004419768 Rises=F Damp=F
 DIIS: error= 8.41D-05 at cycle   2 NSaved=   2.
 NSaved= 2 IEnMin= 2 EnMin= -40.5018480470004     IErMin= 2 ErrMin= 8.41D-05
 ErrMax= 8.41D-05  0.00D+00 EMaxC= 1.00D-01 BMatC= 9.34D-08 BMatP= 3.57D-06
 IDIUse=1 WtCom= 1.00D+00 WtEn= 0.00D+00
 Coeff-Com: -0.146D-01 0.101D+01
 Coeff:     -0.146D-01 0.101D+01
 Gap=     0.677 Goal=   None    Shift=    0.000
 RMSDP=1.59D-05 MaxDP=6.67D-05 DE=-4.42D-06 OVMax= 2.14D-04

 Cycle   3  Pass 1  IDiag  1:
 E= -40.5018482016690     Delta-E=       -0.000000154669 Rises=F Damp=F
 DIIS: error= 1.33D-05 at cycle   3 NSaved=   3.
 NSaved= 3 IEnMin= 3 EnMin= -40.5018482016690     IErMin= 3 ErrMin= 1.33D-05
 ErrMax= 1.33D-05  0.00D+00 EMaxC= 1.00D-01 BMatC= 5.00D-09 BMatP= 9.34D-08
 IDIUse=1 WtCom= 1.00D+00 WtEn= 0.00D+00
 Coeff-Com: -0.334D-01 0.512D-01 0.982D+00
 Coeff:     -0.334D-01 0.512D-01 0.982D+00
 Gap=     0.677 Goal=   None    Shift=    0.000
 RMSDP=4.69D-06 MaxDP=2.71D-05 DE=-1.55D-07 OVMax= 4.83D-05

 Cycle   4  Pass 1  IDiag  1:
 E= -40.5018482090432     Delta-E=       -0.000000007374 Rises=F Damp=F
 DIIS: error= 1.93D-06 at cycle   4 NSaved=   4.
 NSaved= 4 IEnMin= 4 EnMin= -40.5018482090432     IErMin= 4 ErrMin= 1.93D-06
 ErrMax= 1.93D-06  0.00D+00 EMaxC= 1.00D-01 BMatC= 7.42D-11 BMatP= 5.00D-09
 IDIUse=1 WtCom= 1.00D+00 WtEn= 0.00D+00
 Coeff-Com:  0.145D-02-0.141D-01-0.373D-01 0.105D+01
 Coeff:      0.145D-02-0.141D-01-0.373D-01 0.105D+01
 Gap=     0.677 Goal=   None    Shift=    0.000
 RMSDP=1.05D-06 MaxDP=7.76D-06 DE=-7.37D-09 OVMax= 7.03D-06

 Cycle   5  Pass 1  IDiag  1:
 E= -40.5018482091808     Delta-E=       -0.000000000138 Rises=F Damp=F
 DIIS: error= 1.12D-06 at cycle   5 NSaved=   5.
 NSaved= 5 IEnMin= 5 EnMin= -40.5018482091808     IErMin= 5 ErrMin= 1.12D-06
 ErrMax= 1.12D-06  0.00D+00 EMaxC= 1.00D-01 BMatC= 1.82D-11 BMatP= 7.42D-11
 IDIUse=1 WtCom= 1.00D+00 WtEn= 0.00D+00
 Coeff-Com:  0.203D-02-0.686D-02-0.588D-01 0.344D+00 0.720D+00
 Coeff:      0.203D-02-0.686D-02-0.588D-01 0.344D+00 0.720D+00
 Gap=     0.677 Goal=   None    Shift=    0.000
 RMSDP=2.34D-07 MaxDP=1.62D-06 DE=-1.38D-10 OVMax= 2.21D-06

 Cycle   6  Pass 1  IDiag  1:
 E= -40.5018482092005     Delta-E=       -0.000000000020 Rises=F Damp=F
 DIIS: error= 1.62D-07 at cycle   6 NSaved=   6.
 NSaved= 6 IEnMin= 6 EnMin= -40.5018482092005     IErMin= 6 ErrMin= 1.62D-07
 ErrMax= 1.62D-07  0.00D+00 EMaxC= 1.00D-01 BMatC= 5.11D-13 BMatP= 1.82D-11
 IDIUse=1 WtCom= 1.00D+00 WtEn= 0.00D+00
 Coeff-Com: -0.529D-04 0.943D-03 0.317D-03-0.677D-01 0.669D-01 0.100D+01
 Coeff:     -0.529D-04 0.943D-03 0.317D-03-0.677D-01 0.669D-01 0.100D+01
 Gap=     0.677 Goal=   None    Shift=    0.000
 RMSDP=7.79D-08 MaxDP=6.12D-07 DE=-1.97D-11 OVMax= 4.94D-07

 Cycle   7  Pass 1  IDiag  1:
 E= -40.5018482092012     Delta-E=       -0.000000000001 Rises=F Damp=F
 DIIS: error= 8.10D-09 at cycle   7 NSaved=   7.
 NSaved= 7 IEnMin= 7 EnMin= -40.5018482092012     IErMin= 7 ErrMin= 8.10D-09
 ErrMax= 8.10D-09  0.00D+00 EMaxC= 1.00D-01 BMatC= 1.76D-15 BMatP= 5.11D-13
 IDIUse=1 WtCom= 1.00D+00 WtEn= 0.00D+00
 Coeff-Com: -0.203D-04-0.492D-04 0.750D-03 0.415D-02-0.170D-01-0.130D+00
 Coeff-Com:  0.114D+01
 Coeff:     -0.203D-04-0.492D-04 0.750D-03 0.415D-02-0.170D-01-0.130D+00
 Coeff:      0.114D+01
 Gap=     0.677 Goal=   None    Shift=    0.000
 RMSDP=8.17D-09 MaxDP=6.61D-08 DE=-7.25D-13 OVMax= 5.37D-08

 SCF Done:  E(RwB97XD) =  -40.5018482092     A.U. after    7 cycles
            NFock=  7  Conv=0.82D-08     -V/T= 2.0108
 KE= 4.007095104818D+01 PE=-1.198562343501D+02 EE= 2.587811444216D+01
 Leave Link  502 at Wed Feb 26 13:35:15 2020, MaxMem=  2684354560 cpu:         5.2
 (Enter /soft/gaussian/09-e.01/g09/l508.exe)
 QCSCF skips out because SCF is already converged.
 Leave Link  508 at Wed Feb 26 13:35:15 2020, MaxMem=  2684354560 cpu:         0.0
 (Enter /soft/gaussian/09-e.01/g09/l801.exe)
 DoSCS=F DFT=T ScalE2(SS,OS)=  1.000000  1.000000
 Range of M.O.s used for correlation:     1    23
 NBasis=    23 NAE=     5 NBE=     5 NFC=     0 NFV=     0
 NROrb=     23 NOA=     5 NOB=     5 NVA=    18 NVB=    18
 Leave Link  801 at Wed Feb 26 13:35:15 2020, MaxMem=  2684354560 cpu:         0.2
 (Enter /soft/gaussian/09-e.01/g09/l1101.exe)
 Using compressed storage, NAtomX=     5.
 Will process      6 centers per pass.
 R6Disp: Adding Grimme-D2 dispersion energy 1st derivatives to the gradient.
 Leave Link 1101 at Wed Feb 26 13:35:15 2020, MaxMem=  2684354560 cpu:         1.6
 (Enter /soft/gaussian/09-e.01/g09/l1102.exe)
 Symmetrizing basis deriv contribution to polar:
 IMax=3 JMax=2 DiffMx= 0.00D+00
 Leave Link 1102 at Wed Feb 26 13:35:15 2020, MaxMem=  2684354560 cpu:         0.2
 (Enter /soft/gaussian/09-e.01/g09/l1110.exe)
 Forming Gx(P) for the SCF density, NAtomX=     5.
 Integral derivatives from FoFJK, PRISM(SPDF).
 Do as many integral derivatives as possible in FoFJK.
 G2DrvN: MDV=    2684354416.
 G2DrvN: will do     6 centers at a time, making    1 passes.
 Calling FoFCou, ICntrl=  3107 FMM=F I1Cent=   0 AccDes= 0.00D+00.
 FoFJK:  IHMeth= 1 ICntrl=    3107 DoSepK=T KAlg= 0 I1Cent=   0 FoldK=F
 IRaf=         1 NMat=   1 IRICut=       1 DoRegI=T DoRafI=F ISym2E= 0.
 FoFCou: FMM=F IPFlag=           0 FMFlag=      100000 FMFlg1=           0
         NFxFlg=           0 DoJE=F BraDBF=F KetDBF=F FulRan=T
         wScrn=  0.000000 ICntrl=    3507 IOpCl=  0 I1Cent=           0 NGrid=           0
         NMat0=    1 NMatS0=      1 NMatT0=    0 NMatD0=    1 NMtDS0=    0 NMtDT0=    0
 Symmetry not used in FoFCou.
 End of G2Drv F.D. properties file   721 does not exist.
 End of G2Drv F.D. properties file   722 does not exist.
 End of G2Drv F.D. properties file   788 does not exist.
 Leave Link 1110 at Wed Feb 26 13:35:16 2020, MaxMem=  2684354560 cpu:         5.4
 (Enter /soft/gaussian/09-e.01/g09/l1002.exe)
 Minotr:  Closed shell wavefunction.
          IDoAtm=11111
          Direct CPHF calculation.
          Differentiating once with respect to electric field.
                with respect to dipole field.
          Differentiating once with respect to nuclear coordinates.
          Requested convergence is 1.0D-08 RMS, and 1.0D-07 maximum.
          Secondary convergence is 1.0D-12 RMS, and 1.0D-12 maximum.
          NewPWx=T KeepS1=F KeepF1=F KeepIn=T MapXYZ=F SortEE=F KeepMc=T.
          MDV=    2684354483 using IRadAn=       4.
 Generate precomputed XC quadrature information.
 Keep R1 ints in memory in canonical form, NReq=938800.
 FoFCou: FMM=F IPFlag=           0 FMFlag=           0 FMFlg1=           0
         NFxFlg=           0 DoJE=F BraDBF=F KetDBF=F FulRan=T
         wScrn=  0.000000 ICntrl=     600 IOpCl=  0 I1Cent=           0 NGrid=           0
         NMat0=    1 NMatS0=    276 NMatT0=    0 NMatD0=    1 NMtDS0=    0 NMtDT0=    0
 Symmetry not used in FoFCou.
          Solving linear equations simultaneously, MaxMat=       0.
          There are    18 degrees of freedom in the 1st order CPHF.  IDoFFX=6 NUNeed=     3.
     15 vectors produced by pass  0 Test12= 5.00D-16 5.56D-09 XBig12= 3.63D+00 1.29D+00.
 AX will form    15 AO Fock derivatives at one time.
     15 vectors produced by pass  1 Test12= 5.00D-16 5.56D-09 XBig12= 4.18D-02 1.31D-01.
     15 vectors produced by pass  2 Test12= 5.00D-16 5.56D-09 XBig12= 1.90D-05 2.79D-03.
     15 vectors produced by pass  3 Test12= 5.00D-16 5.56D-09 XBig12= 5.32D-08 9.72D-05.
     15 vectors produced by pass  4 Test12= 5.00D-16 5.56D-09 XBig12= 1.05D-10 6.19D-06.
      4 vectors produced by pass  5 Test12= 5.00D-16 5.56D-09 XBig12= 1.69D-13 1.79D-07.
      1 vectors produced by pass  6 Test12= 5.00D-16 5.56D-09 XBig12= 1.33D-16 6.00D-09.
 InvSVY:  IOpt=1 It=  1 EMax= 9.99D-16
 Solved reduced A of dimension    80 with    15 vectors.
 FullF1:  Do perturbations    1 to     3.
 Isotropic polarizability for W=    0.000000       12.47 Bohr**3.
 End of Minotr F.D. properties file   721 does not exist.
 End of Minotr F.D. properties file   722 does not exist.
 End of Minotr F.D. properties file   788 does not exist.
 Leave Link 1002 at Wed Feb 26 13:35:16 2020, MaxMem=  2684354560 cpu:         6.9
 (Enter /soft/gaussian/09-e.01/g09/l601.exe)
 Copying SCF densities to generalized density rwf, IOpCl= 0 IROHF=0.

 **********************************************************************

            Population analysis using the SCF density.

 **********************************************************************

 Alpha  occ. eigenvalues --  -10.27533  -0.78732  -0.47313  -0.47311  -0.47128
 Alpha virt. eigenvalues --    0.20543   0.26075   0.26164   0.26165   0.62227
 Alpha virt. eigenvalues --    0.62284   0.62285   0.99707   0.99927   0.99929
 Alpha virt. eigenvalues --    1.04868   1.18750   1.73937   1.73937   2.33589
 Alpha virt. eigenvalues --    2.33592   2.33776   4.28125
          Condensed to atoms (all electrons):
               1          2          3          4          5
     1  C    5.160149   0.383458   0.383925   0.383920   0.383920
     2  H    0.383458   0.518046  -0.024895  -0.024904  -0.024904
     3  H    0.383925  -0.024895   0.515446  -0.024269  -0.024269
     4  H    0.383920  -0.024904  -0.024269   0.515476  -0.024278
     5  H    0.383920  -0.024904  -0.024269  -0.024278   0.515476
 Mulliken charges:
               1
     1  C   -0.695372
     2  H    0.173199
     3  H    0.174063
     4  H    0.174055
     5  H    0.174055
 Sum of Mulliken charges =   0.00000
 Mulliken charges with hydrogens summed into heavy atoms:
               1
     1  C    0.000000
 APT charges:
               1
     1  C   -0.025989
     2  H    0.005065
     3  H    0.006969
     4  H    0.006978
     5  H    0.006978
 Sum of APT charges =  -0.00000
 APT charges with hydrogens summed into heavy atoms:
               1
     1  C   -0.000000
 Electronic spatial extent (au):  <R**2>=             35.3523
 Charge=              0.0000 electrons
 Dipole moment (field-independent basis, Debye):
    X=             -0.0000    Y=             -0.0001    Z=             -0.0062  Tot=              0.0062
 Quadrupole moment (field-independent basis, Debye-Ang):
   XX=             -8.1963   YY=             -8.1959   ZZ=             -8.2300
   XY=             -0.0000   XZ=              0.0000   YZ=              0.0001
 Traceless Quadrupole moment (field-independent basis, Debye-Ang):
   XX=              0.0111   YY=              0.0115   ZZ=             -0.0226
   XY=             -0.0000   XZ=              0.0000   YZ=              0.0001
 Octapole moment (field-independent basis, Debye-Ang**2):
  XXX=              0.0000  YYY=              0.6228  ZZZ=             -0.8499  XYY=             -0.0000
  XXY=             -0.6226  XXZ=              0.4337  XZZ=             -0.0000  YZZ=             -0.0000
  YYZ=              0.4339  XYZ=             -0.0000
 Hexadecapole moment (field-independent basis, Debye-Ang**3):
 XXXX=            -14.8686 YYYY=            -14.8686 ZZZZ=            -14.6338 XXXY=              0.0000
 XXXZ=             -0.0000 YYYX=             -0.0000 YYYZ=              0.3369 ZZZX=              0.0000
 ZZZY=              0.0001 XXYY=             -4.9561 XXZZ=             -5.2040 YYZZ=             -5.2040
 XXYZ=             -0.3369 YYXZ=             -0.0000 ZZXY=              0.0000
 N-N= 1.340532065059D+01 E-N=-1.198562343291D+02  KE= 4.007095104818D+01
  Exact polarizability:  12.477  -0.000  12.478   0.000   0.001  12.450
 Approx polarizability:  11.399  -0.000  11.399   0.000   0.000  11.360
 No NMR shielding tensors so no spin-rotation constants.
 Leave Link  601 at Wed Feb 26 13:35:16 2020, MaxMem=  2684354560 cpu:         1.8
 (Enter /soft/gaussian/09-e.01/g09/l701.exe)
 Compute integral second derivatives.
 ... and contract with generalized density number  0.
 R6Disp: Adding Grimme-D2 dispersion energy 2nd derivatives to the Hessian.
 Leave Link  701 at Wed Feb 26 13:35:17 2020, MaxMem=  2684354560 cpu:         1.9
 (Enter /soft/gaussian/09-e.01/g09/l702.exe)
 L702 exits ... SP integral derivatives will be done elsewhere.
 Leave Link  702 at Wed Feb 26 13:35:17 2020, MaxMem=  2684354560 cpu:         0.1
 (Enter /soft/gaussian/09-e.01/g09/l703.exe)
 Compute integral second derivatives, UseDBF=F ICtDFT=           0.
 Integral derivatives from FoFJK, PRISM(SPDF).
 Calling FoFJK, ICntrl=    100127 FMM=F ISym2X=0 I1Cent= 0 IOpClX= 0 NMat=1 NMatS=1 NMatT=0.
 FoFJK:  IHMeth= 1 ICntrl=  100127 DoSepK=T KAlg= 0 I1Cent=   0 FoldK=F
 IRaf=         1 NMat=   1 IRICut=       1 DoRegI=T DoRafI=F ISym2E= 0.
 FoFCou: FMM=F IPFlag=           0 FMFlag=      100000 FMFlg1=         800
         NFxFlg=           0 DoJE=F BraDBF=F KetDBF=F FulRan=T
         wScrn=  0.000000 ICntrl=  100527 IOpCl=  0 I1Cent=           0 NGrid=           0
         NMat0=    1 NMatS0=      1 NMatT0=    0 NMatD0=    1 NMtDS0=    0 NMtDT0=    0
 Symmetry not used in FoFCou.
 Leave Link  703 at Wed Feb 26 13:35:18 2020, MaxMem=  2684354560 cpu:         8.2
 (Enter /soft/gaussian/09-e.01/g09/l716.exe)
 Dipole        =-2.71560303D-12-2.88977531D-05-2.44847790D-03
 Polarizability= 1.24768115D+01-9.12688641D-12 1.24775216D+01
                 2.59824512D-11 6.07918689D-04 1.24497141D+01
 -------------------------------------------------------------------
 Center     Atomic                   Forces (Hartrees/Bohr)
 Number     Number              X              Y              Z
 -------------------------------------------------------------------
      1        6          -0.000000000   -0.000022808   -0.002345750
      2        1           0.000000000    0.000008928    0.000185328
      3        1           0.000000000   -0.000064128    0.000716196
      4        1           0.000052373    0.000039004    0.000722113
      5        1          -0.000052373    0.000039004    0.000722113
 -------------------------------------------------------------------
 Cartesian Forces:  Max     0.002345750 RMS     0.000688281
 Force constants in Cartesian coordinates: 
                1             2             3             4             5 
      1  0.571658D+00
      2  0.000000D+00  0.571455D+00
      3  0.000000D+00  0.400892D-04  0.562558D+00
      4 -0.488645D-01  0.000000D+00  0.000000D+00  0.473088D-01
      5  0.000000D+00 -0.488747D-01 -0.256370D-04  0.000000D+00  0.473060D-01
      6  0.000000D+00 -0.255763D-04 -0.326514D+00  0.000000D+00  0.223625D-04
      7 -0.489110D-01  0.000000D+00  0.000000D+00 -0.160112D-02  0.000000D+00
      8  0.000000D+00 -0.299471D+00 -0.873717D-01  0.000000D+00  0.264394D-02
      9  0.000000D+00 -0.871964D-01 -0.787236D-01  0.000000D+00 -0.330396D-01
     10 -0.236941D+00 -0.108543D+00  0.756290D-01  0.157837D-02  0.183599D-02
     11 -0.108535D+00 -0.111555D+00  0.436786D-01  0.183620D-02 -0.537616D-03
     12  0.754720D-01  0.435910D-01 -0.786603D-01  0.286133D-01  0.165215D-01
     13 -0.236941D+00  0.108543D+00 -0.756290D-01  0.157837D-02 -0.183599D-02
     14  0.108535D+00 -0.111555D+00  0.436786D-01 -0.183620D-02 -0.537616D-03
     15 -0.754720D-01  0.435910D-01 -0.786603D-01 -0.286133D-01  0.165215D-01
                6             7             8             9            10 
      6  0.351965D+00
      7  0.000000D+00  0.469662D-01
      8  0.122630D-02  0.000000D+00  0.321354D+00
      9 -0.848109D-02  0.000000D+00  0.958068D-01  0.802463D-01
     10 -0.106190D-02  0.177297D-02  0.176305D-02 -0.147830D-02  0.252878D+00
     11 -0.611541D-03 -0.260751D-01 -0.122639D-01  0.122146D-01  0.118859D+00
     12 -0.848512D-02 -0.113194D-01 -0.483070D-02  0.347917D-02 -0.829273D-01
     13  0.106190D-02  0.177297D-02 -0.176305D-02  0.147830D-02 -0.192885D-01
     14 -0.611541D-03  0.260751D-01 -0.122639D-01  0.122146D-01 -0.139148D-01
     15 -0.848512D-02  0.113194D-01 -0.483070D-02  0.347917D-02  0.983852D-02
               11            12            13            14            15 
     11  0.115563D+00
     12 -0.478979D-01  0.801875D-01
     13  0.139148D-01 -0.983852D-02  0.252878D+00
     14  0.879340D-02 -0.738378D-02 -0.118859D+00  0.115563D+00
     15 -0.738378D-02  0.347874D-02  0.829273D-01 -0.478979D-01  0.801875D-01
 Leave Link  716 at Wed Feb 26 13:35:18 2020, MaxMem=  2684354560 cpu:         0.2
 (Enter /soft/gaussian/09-e.01/g09/l106.exe)
 NDeriv=   9 NFrqRd=  0 NDerD0=   0 MskFDP=       0 MskDFD=       0 MskDF0=       0
 Re-enter D2Numr: Normal Mode=  1 IStep= 1.
 Leave Link  106 at Wed Feb 26 13:35:18 2020, MaxMem=  2684354560 cpu:         0.6
 (Enter /soft/gaussian/09-e.01/g09/l301.exe)
 Standard basis: 6-31G(d) (6D, 7F)
 Ernie: Thresh=  0.10000D-02 Tol=  0.10000D-05 Strict=F.
    23 basis functions,    44 primitive gaussians,    23 cartesian basis functions
     5 alpha electrons        5 beta electrons
       nuclear repulsion energy        13.4057190239 Hartrees.
 IExCor= 4639 DFT=T Ex+Corr=wB97XD ExCW=0 ScaHFX=  1.000000
 ScaDFX=  1.000000  1.000000  1.000000  1.000000 ScalE2=  1.000000  1.000000
 IRadAn=      5 IRanWt=     -1 IRanGd=            0 ICorTp=0 IEmpDi=121
  HFx wShort=  0.000000 wLong=  0.200000 cFull=  0.222036 cShort=  0.000000 cLong=  0.777964
  DFx wShort=  0.000000 wLong=  0.200000 cFull=  0.000000 cShort=  0.000000 cLong=  1.000000
 NAtoms=    5 NActive=    5 NUniq=    5 SFac= 1.00D+00 NAtFMM=   60 NAOKFM=F Big=F
 Integral buffers will be    131072 words long.
 Raffenetti 2 integral format.
 Two-electron integral symmetry is turned off.
 R6Disp:  Grimme-D2 Dispersion energy=       -0.0004024299 Hartrees.
 Nuclear repulsion after empirical dispersion term =       13.4053165941 Hartrees.
 Leave Link  301 at Wed Feb 26 13:35:18 2020, MaxMem=  2684354560 cpu:         0.4
 (Enter /soft/gaussian/09-e.01/g09/l302.exe)
 NPDir=0 NMtPBC=     1 NCelOv=     1 NCel=       1 NClECP=     1 NCelD=      1
         NCelK=      1 NCelE2=     1 NClLst=     1 CellRange=     0.0.
 One-electron integrals computed using PRISM.
 NBasis=    23 RedAO= T EigKep=  1.79D-02  NBF=    23
 NBsUse=    23 1.00D-06 EigRej= -1.00D+00 NBFU=    23
 Precomputing XC quadrature grid using
 IXCGrd= 4 IRadAn=           5 IRanWt=          -1 IRanGd=           0 AccXCQ= 0.00D+00.
 Generated NRdTot=       0 NPtTot=           0 NUsed=           0 NTot=          32
 NSgBfM=    23    23    23    23    23 MxSgAt=     5 MxSgA2=     5.
[...]
 48467,-0.00205803,-0.00189679,0.00315479,0.00341512,-0.05383428,-0.023
 47927,-0.07473772,0.02252054,-0.00090358,0.00293363,-0.00063262,0.0044
 5370,-0.00432915,0.00313359,-0.00315479,0.01874252,-0.00226631,0.02308
 394,0.05739073,-0.00008134,0.02239463,-0.01200712,0.00384392,-0.003930
 58,0.00757825,-0.00014691,0.00202484,0.00037707,0.00341512,0.00226631,
 -0.00088071,-0.00703078,-0.02275520,0.00493251,0.10121488,0.,-0.099401
 31,0.14096675,0.,0.00048076,0.00550206,0.,-0.06000811,0.00800300,0.,-0
 .00536153,0.,0.,-0.00815546,-0.05319333,0.,0.00003966,0.04284037,0.,-0
 .00003459,-0.03709196,0.,-0.03885537,-0.01188980,0.,0.00671508,0.02996
 032,0.,-0.00560544,0.,0.,0.00756742,0.,0.,-0.00796709,-0.04563695,0.,0
 .04017546,0.00960394,0.,-0.01771076,0.03584354,0.,-0.01945401,-0.03481
 248,-0.02007414,-0.02105164,-0.00080763,0.00554479,0.00181894,0.009510
 72,0.00497897,0.00009474,0.02767895,-0.01452819,0.05518414,-0.01076548
 ,0.00351301,0.00297478,0.00283995,0.00384533,0.00300255,0.00235265,0.0
 0836011,-0.03771519,-0.02106823,-0.01470226,-0.02034795,0.00378190,0.0
 0337814,0.00885284,-0.00185162,0.00408897,-0.00150535,0.02559700,0.006
 40401,0.00999617,-0.03481249,0.02007414,-0.02105164,-0.00080763,-0.005
 54479,0.00181894,0.00951073,-0.00497897,0.00009474,-0.00156956,-0.0011
 9027,-0.00645905,0.02767895,0.01452819,0.05518414,0.01076547,-0.003513
 01,0.00297478,-0.00283995,-0.00384534,0.00300255,-0.00235265,0.0011902
 7,-0.02344628,0.00083113,-0.00836012,-0.03771519,-0.02106823,0.0147022
 6,-0.02034794,0.00378190,-0.00337814,0.00885284,-0.00185162,-0.0040889
 7,-0.00150535,-0.00645905,-0.00083113,0.00300428,0.02559700,-0.0064040
 1,0.00999616,0.,-0.09881804,0.,0.,0.14192017,0.,0.,-0.00536390,0.,0.,-
 0.00537611,0.,-0.06000651,-0.00815961,0.,0.,-0.05318602,0.,0.,0.042846
 10,0.,0.,0.05205339,0.,0.,0.00045015,0.,0.,0.05844515,0.,-0.01474933,-
 0.00190201,0.,0.00018201,-0.03775223,0.,0.,-0.01246990,0.,0.,0.0018323
 4,0.,0.,0.02179491,0.,0.03453813,0.02606427,-0.01076701,-0.00263576,0.
 00654279,0.00283620,-0.01525171,-0.00939545,0.00297216,-0.01665066,0.0
 2287450,-0.00030547,-0.03358217,0.00771276,0.00640407,0.00507896,-0.00
 737566,-0.00641135,-0.00557867,-0.02249961,0.00031275,-0.01469522,-0.0
 3813212,-0.03538152,0.00336467,0.00766403,0.01532262,0.00349362,-0.003
 61379,0.00261453,0.00639779,0.03309566,0.01744436,-0.03453813,0.026064
 27,0.01076702,0.00263576,0.00654279,-0.00283620,0.01525171,-0.00939545
 ,-0.00297216,0.,-0.00071200,0.00143913,0.01665065,0.02287450,0.0003054
 6,-0.03358217,0.00771276,-0.00640407,0.00507896,-0.00737566,0.00641135
 ,-0.00557867,-0.00071200,0.,0.00098622,-0.02249961,-0.00031275,0.01469
 522,-0.03813213,0.03538152,-0.00336467,0.00766404,-0.01532263,-0.00349
 362,-0.00361379,-0.00261453,-0.00143913,0.00098622,0.,-0.00639780,0.03
 309566,-0.01744436,-0.55776569,0.,-0.55827480,0.00171569,0.,-0.6056675
 3,-0.05231639,0.,0.00004226,0.05832432,0.,-0.05231273,0.,0.,0.05832466
 ,0.00005671,0.,0.55955894,-0.00004139,0.,-0.55954451,0.45294786,0.,-0.
 17945731,-0.00517596,0.,0.00495299,-0.45298620,0.,-0.04792478,0.,0.,0.
 00118517,0.,0.,0.05405553,-0.17882238,0.,0.01653434,-0.02133261,0.,0.0
 0000433,0.18167004,0.,-0.01091475,0.07856711,0.21811978,0.08884969,-0.
 00041598,-0.00275719,-0.00248415,0.00260715,0.01577252,0.00924247,-0.0
 7396978,0.21812226,0.32925616,0.15376717,-0.00275659,-0.00359855,-0.00
 432471,-0.00494247,-0.00365796,-0.00120927,-0.22077916,-0.32771186,0.0
 8852499,0.15321044,0.01478713,0.01066588,0.01846529,-0.00000938,-0.003
 58286,-0.00862094,-0.00281196,-0.08994327,-0.15564399,-0.00915988,0.07
 856711,-0.21811978,0.08884969,-0.00041598,0.00275719,-0.00248415,0.002
 60715,-0.01577252,0.00924247,-0.00678850,0.01035596,-0.00566474,-0.073
 96978,-0.21812226,0.32925616,-0.15376717,0.00275659,-0.00359855,0.0043
 2471,0.00494247,-0.00365796,0.00120927,-0.01035596,0.00571222,-0.00741
 080,0.22077916,-0.32771186,0.08852499,-0.15321044,0.01478713,0.0106658
 8,-0.01846529,-0.00000938,-0.00358286,0.00862094,-0.00281196,-0.005664
 74,0.00741080,-0.00280591,-0.08994327,0.15564399,-0.00915988,0.5485347
 7,0.,0.54823197,-0.00155145,0.,-1.04183546,-0.11608174,0.,0.00006079,0
 .10767630,0.,-0.11609138,0.,0.,0.10769078,0.00004836,0.,0.98977753,-0.
 00006262,0.,-0.96449817,-0.31682959,0.,0.10463322,0.00621424,0.,-0.000
 01110,0.31327454,0.,0.02942056,0.,0.,-0.00060924,0.,0.,-0.03386708,0.1
 2788842,0.,0.01653335,-0.01382400,0.,-0.00843300,-0.10697107,0.,-0.011
 99227,-0.05781172,-0.15041961,-0.05157128,0.00109560,0.00296422,0.0000
 1268,-0.00132960,-0.01094548,-0.00354667,0.05358787,-0.15042610,-0.230
 78057,-0.08925991,0.00295783,0.00450492,0.00003122,0.00426484,0.002527
 88,0.00069446,0.15080214,0.22699154,-0.06319267,-0.10939028,0.01776229
 ,0.00691292,0.01198375,-0.00842318,0.00117448,0.00342256,0.00194596,0.
 05273641,0.09125910,-0.01322125,-0.05781172,0.15041961,-0.05157128,0.0
 0109560,-0.00296422,0.00001268,-0.00132960,0.01094548,-0.00354667,0.00
 445785,-0.00759872,0.00236886,0.05358787,0.15042610,-0.23078057,0.0892
 5991,-0.00295783,0.00450492,-0.00003122,-0.00426484,0.00252788,-0.0006
 9446,0.00759872,-0.00324378,0.00272487,-0.15080214,0.22699154,-0.06319
 267,0.10939028,0.01776229,0.00691292,-0.01198375,-0.00842318,0.0011744
 8,-0.00342256,0.00194596,0.00236886,-0.00272487,0.00193617,0.05273641,
 -0.09125910,-0.01322125,-0.00000021,0.75189259,0.00000021,0.00000015,0
 .52910473,-0.00000001,0.,-0.01216562,0.,0.,-0.01217949,-0.00000001,-0.
 00409443,0.00475236,0.00000001,0.,-0.02886736,0.,0.,0.02136751,0.,0.00
 000021,-0.03130738,-0.00000009,0.,-0.00113488,0.,-0.00000022,-0.007928
 42,-0.00000004,-0.01013408,0.00192506,0.,-0.00188684,0.02176503,0.0000
 0004,-0.00000009,-0.00184386,0.,0.,0.00244257,0.,0.00000009,-0.0026371
 2,0.,-0.11438036,-0.35420985,-0.14290240,0.00284523,0.00428101,0.00378
 733,-0.00570425,-0.00788083,-0.00408271,0.11723939,-0.36589239,-0.5058
 8855,-0.25743815,0.00274410,0.00644299,0.00469335,0.00533862,0.0064492
 7,0.00101921,0.34859955,0.49299629,-0.14291871,-0.24919679,-0.01040353
 ,-0.00710780,-0.00985782,-0.00558141,0.00682747,0.00732902,0.00295839,
 0.14319841,0.24520738,0.01302655,0.11438036,-0.35420974,0.14290235,-0.
 00284523,0.00428101,-0.00378733,0.00570426,-0.00788084,0.00408271,0.,0
 .00921013,0.00000063,-0.11723939,-0.36589229,0.50588838,-0.25743807,0.
 00274410,-0.00644299,0.00469335,0.00533862,-0.00644927,0.00101921,0.00
 921013,0.,0.00651822,0.34859944,-0.49299614,0.14291866,-0.24919671,0.0
 1040355,0.00710780,-0.00985782,0.00558142,-0.00682747,0.00732902,-0.00
 295840,-0.00000063,0.00651822,0.,-0.14319836,0.24520730,-0.01302657,-0
 .74588715,-0.00000020,0.75144004,0.53229358,-0.00000014,-0.00324685,0.
 01209581,0.,-0.00406627,-0.00470012,0.,-0.01220787,0.,0.,0.00477920,-0
 .02879249,0.,0.00034279,0.02136435,0.,-0.00035593,0.82690273,0.,-0.342
 93116,-0.00988694,0.,0.00682338,-0.80513206,0.,-0.11543444,0.,0.,-0.00
 080486,0.,0.,0.10521675,-0.33469579,0.,0.01483331,-0.01397580,0.,0.006
 46489,0.33088439,0.,-0.01788825,-0.04655567,-0.20683281,-0.09264804,0.
 00124562,0.00048064,0.00030238,-0.00594186,0.00988531,0.00889361,0.046
 04606,-0.18661653,-0.31189873,-0.14281582,0.00312410,0.00411676,0.0038
 0478,0.00228216,0.00551127,0.00316968,0.18883857,0.30660139,-0.0844026
 1,-0.14284742,-0.00596462,-0.00166113,-0.00709538,-0.00322588,0.002611
 70,-0.00044840,-0.00170498,0.08007082,0.14311628,0.00748838,-0.0465557
 3,0.20683300,-0.09264811,0.00124563,-0.00048064,0.00030238,-0.00594187
 ,-0.00988531,0.00889360,0.00520585,-0.00762829,0.00338123,0.04604612,0
 .18661673,-0.31189900,0.14281595,-0.00312410,0.00411676,-0.00380478,-0
 .00228216,0.00551127,-0.00316968,0.00762829,-0.00433068,0.00727492,-0.
 18883875,0.30660165,-0.08440269,0.14284755,-0.00596463,-0.00166114,0.0
 0709539,-0.00322588,0.00261170,0.00044840,-0.00170498,0.00338123,-0.00
 727493,0.00340710,0.08007090,-0.14311641,0.00748838,-1.84504218,0.,0.0
 3007052,0.01735452,0.,0.08272755,0.01504769,0.,0.05998980,-0.00906685,
 0.,0.01858398,0.,0.,-0.00728110,0.04996422,0.,-0.00001215,-0.04279060,
 0.,-0.00084404,1.32174427,0.,-0.05777771,-0.00080834,0.,0.00161891,-1.
 31886560,0.,-0.05361278,0.,0.,-0.00284376,0.,0.,0.05651762,-0.05187249
 ,0.,-0.18976502,-0.01408915,0.,0.00233642,0.04275074,0.,0.19502084,0.2
 3788474,0.22538949,-0.00941281,0.00150530,-0.00341180,-0.00440646,0.00
 374818,-0.00112294,0.01367968,-0.24069115,0.18874855,-0.00520378,0.079
 37410,-0.00352071,-0.01120024,0.00076168,0.00436502,-0.00481337,0.0027
 7602,-0.21119192,0.03747513,-0.01258685,0.10168061,0.04150252,0.003669
 78,0.01541732,0.00311390,0.00691418,-0.00070434,-0.00379476,0.01911109
 ,-0.10447201,-0.02338132,0.23788474,-0.22538949,-0.00941281,0.00150530
 ,0.00341180,-0.00440646,0.00374818,0.00112294,0.01367968,0.00491841,0.
 02679093,-0.01954272,-0.24069116,-0.18874855,-0.00520377,-0.07937411,0
 .00352071,-0.01120024,-0.00076167,-0.00436502,-0.00481337,-0.00277602,
 -0.02679093,0.00317867,-0.02405170,0.21119193,0.03747512,-0.01258685,-
 0.10168061,0.04150252,0.00366978,-0.01541732,0.00311389,0.00691418,0.0
 0070434,-0.00379476,-0.01954272,0.02405170,-0.00927341,0.01911108,0.10
 447202,-0.02338132,-1.77435355,0.,0.29728133,0.10857621,0.00000001,-0.
 18209982,-0.01873005,-0.00000016,0.07003970,0.01387397,-0.00000016,-0.
 06117360,-0.00000049,-0.00000002,0.06674741,0.06173011,-0.00000028,0.2
 6424732,-0.05073578,0.00000007,-0.24091647,1.37429623,-0.00000032,-0.0
 3765421,0.00099153,0.00000022,-0.00053775,-1.36567490,-0.00000051,-0.0
 9664161,0.,0.00000002,0.00098532,0.00000022,0.00000006,0.10299109,-0.0
 2095391,-0.00000006,-0.17941001,-0.01250305,-0.00000005,-0.00374744,0.
 01853458,-0.00000004,0.17615988,0.19315333,0.14322158,-0.07011022,0.00
 602387,0.00085868,-0.00523863,-0.00002240,0.00829222,0.00953536,-0.193
 68032,0.12302406,-0.07741516,0.00938491,-0.00198259,-0.01025031,0.0003
 6953,0.00568599,-0.00845028,0.00486090,-0.14551757,0.10591349,-0.07953
 981,0.00969343,0.03660888,0.00182453,0.02142355,-0.00593694,0.01003848
 ,0.00519806,0.00350026,0.07991097,-0.03028414,-0.02044478,0.19315331,-
 0.14322111,-0.07011048,0.00602377,-0.00085872,-0.00523836,-0.00002377,
 -0.00829179,0.00953548,0.00189100,0.02398196,-0.01466871,-0.19367884,-
 0.12302340,-0.07741678,-0.00938444,0.00198274,-0.01025019,-0.00036955,
 -0.00568596,-0.00845017,-0.00486075,-0.02398302,0.00963868,-0.01816102
 ,0.14551777,0.10591488,-0.07954007,-0.00969310,0.03660905,0.00182420,-
 0.02142308,-0.00593845,0.01003920,-0.00519826,0.00350003,-0.01466871,0
 .01816028,-0.00556050,0.07991084,0.03028429,-0.02044320,-1.59200773,0.
 ,0.10540303,-0.05524931,0.,-0.17046299,-0.06484307,0.,0.05058137,0.064
 90455,0.,-0.01509214,0.,0.,0.01579516,0.03733149,0.,0.26442072,-0.0345
 4410,0.,-0.24081521,1.15443749,0.,0.05427461,0.00403713,0.,0.00396596,
 -1.16535112,0.,-0.02729608,0.,0.,-0.00248845,0.,0.,0.03888293,0.087953
 13,0.,-0.19848462,-0.02064104,0.,-0.00761444,-0.07416928,0.,0.20340995
 ,0.23496629,0.24646400,-0.02443284,0.00204224,-0.00595109,-0.00338687,
 0.00822158,0.00091572,0.00550282,-0.23274389,0.19333640,-0.03919032,0.
 03196633,-0.00357098,-0.00607797,0.00208957,0.00783812,-0.00933203,0.0
 0324710,-0.22548421,0.07178620,-0.03988138,0.04562258,0.04024116,0.007
 52669,0.01353830,-0.00414153,0.00817451,0.00521453,0.00134591,0.037906
 91,-0.05565852,-0.02814545,0.23496629,-0.24646400,-0.02443283,0.002042
 24,0.00595109,-0.00338687,0.00822158,-0.00091572,0.00550282,-0.0051207
 5,0.03307253,-0.01616124,-0.23274389,-0.19333641,-0.03919031,-0.031966
 33,0.00357098,-0.00607797,-0.00208957,-0.00783812,-0.00933203,-0.00324
 710,-0.03307253,0.00225054,-0.02084701,0.22548421,0.07178618,-0.039881
 38,-0.04562259,0.04024116,0.00752668,-0.01353830,-0.00414153,0.0081745
 1,-0.00521453,0.00134591,-0.01616124,0.02084701,-0.00113317,0.03790690
 ,0.05565853,-0.02814545,-1.69380538,0.,0.15617357,0.04567752,0.,-0.069
 54423,-0.02666230,0.,0.06738495,0.02053090,0.,0.00157824,0.,0.,0.00314
 046,0.04128700,0.,0.14711248,-0.05119009,0.,-0.13190439,1.25541755,0.,
 -0.01100670,0.00492121,0.,0.01497818,-1.26174411,0.,-0.04065140,0.,0.,
 0.00211793,0.,0.,0.04644101,0.02350779,0.,-0.19638951,-0.01889083,0.,-
 0.00311866,-0.02406440,0.,0.19873635,0.21628470,0.19546919,-0.05065739
 ,0.00469664,0.00134843,-0.00254774,0.00548601,-0.00112958,0.01179795,-
 0.22575958,0.14611563,-0.06623311,0.02582855,-0.00204968,-0.01038900,-
 0.00063315,0.00476831,-0.00873660,0.00517428,-0.17822927,0.10357524,-0
 .06009988,0.04685894,0.04738834,0.00657278,0.01119661,-0.00219071,0.01
 025661,0.00909790,0.00038726,0.05588090,-0.05358088,-0.03693954,0.2162
 8469,-0.19546919,-0.05065739,0.00469664,-0.00134843,-0.00254774,0.0054
 8602,0.00112958,0.01179795,0.00665770,0.03458688,-0.01504494,-0.225759
 58,-0.14611562,-0.06623311,-0.02582854,0.00204968,-0.01038900,0.000633
 15,-0.00476831,-0.00873660,-0.00517428,-0.03458688,0.00121989,-0.02570
 269,0.17822926,0.10357524,-0.06009988,-0.04685894,0.04738834,0.0065727
 8,-0.01119662,-0.00219071,0.01025661,-0.00909790,0.00038727,-0.0150449
 4,0.02570269,-0.00047843,0.05588090,0.05358088,-0.03693954,-1.73484261
 ,-0.00000040,0.18480768,0.00000520,-0.00000021,-0.07207269,-0.00209282
 ,0.00000006,0.05330656,0.00132618,0.00000006,-0.02307923,0.00000013,-0
 .00000003,0.02244777,0.05827519,0.00000003,0.14713320,-0.03440456,0.00
 000008,-0.13192696,1.25441908,0.00000004,0.01119200,0.00254592,-0.0000
 0005,-0.00199599,-1.24912873,0.00000016,-0.06149789,-0.00000002,-0.000
 00002,-0.00452740,-0.00000004,0.00000005,0.06185931,0.01443164,0.00000
 002,-0.17606755,-0.00971025,0.,-0.00280226,-0.01450254,-0.00000005,0.1
 7156820,0.22501755,0.18136741,-0.03188134,0.00320193,-0.00520903,-0.01
 094752,0.00086502,0.00471273,0.00696481,-0.22238505,0.15725572,-0.0577
 9843,0.03148299,-0.00220849,-0.00439118,-0.00553192,-0.00000605,-0.002
 69978,0.00658610,-0.17392442,0.07973877,-0.04121971,0.03458995,0.03848
 094,0.00062886,0.01985254,-0.00234818,0.00286350,-0.00002045,0.0036521
 6,0.04976447,-0.04829904,-0.02475903,0.22501807,-0.18136712,-0.0318814
 2,0.00320190,0.00520906,-0.01094753,0.00086539,-0.00471291,0.00696479,
 0.00066603,0.02407510,-0.01447165,-0.22238591,-0.15725553,-0.05779795,
 -0.03148289,0.00220849,-0.00439132,0.00553186,0.00000601,-0.00269990,-
 0.00658606,-0.02407479,0.00458704,-0.01825312,0.17392397,0.07973854,-0
 .04121978,-0.03458979,0.03848152,0.00062898,-0.01985275,-0.00234779,0.
 00286333,0.00002057,0.00365216,-0.01447165,0.01825335,-0.00685896,0.04
 976458,0.04829874,-0.02476000,-1.38163665,0.,0.34975389,0.05004890,0.,
 0.44671023,0.12172198,0.,0.05878481,-0.14218280,0.,0.12425688,0.,0.,-0
 .14030235,0.04772257,0.,-0.57783829,-0.04144325,0.,0.54475339,0.782835
 14,0.,0.17769568,0.01618813,0.,-0.01911850,-0.82569819,0.,0.07734401,0
 .,0.,-0.00276531,0.,0.,-0.09087687,0.19577568,0.,-0.10768454,0.0055864
 3,0.,0.01348993,-0.18717220,0.,0.08542352,0.22229940,-0.02650328,-0.14
 289420,0.00622789,0.00461698,0.00640939,0.01812080,-0.01141212,-0.0050
 2072,-0.24919899,-0.06232017,-0.28336030,-0.13312557,0.00440498,0.0024
 3471,0.01995654,0.02523613,0.00336625,0.00378659,0.02702062,0.27545733
 ,-0.15163730,-0.12056804,0.10738401,-0.00623919,-0.00140646,0.01365149
 ,0.01450766,0.01586220,0.00438690,0.15028044,0.10292805,-0.11591333,0.
 22229939,0.02650328,-0.14289419,0.00622789,-0.00461699,0.00640939,0.01
 812080,0.01141212,-0.00502072,0.00991638,0.01085030,-0.00934613,-0.249
 19899,0.06232017,-0.28336029,0.13312557,-0.00440498,0.00243471,-0.0199
 5654,-0.02523613,0.00336625,-0.00378659,-0.01085030,0.02153843,-0.0089
 4587,-0.02702061,0.27545732,-0.15163730,0.12056804,0.10738401,-0.00623
 919,0.00140646,0.01365149,0.01450766,-0.01586220,0.00438690,-0.0093461
 3,0.00894587,-0.00134214,0.15028044,-0.10292805,-0.11591334,-1.8367623
 6,0.,0.00039995,0.03694170,0.,1.78628708,0.46337934,0.,0.05537367,-0.4
 6052723,0.,0.46668073,0.,0.,-0.45872039,0.04491058,0.,-1.81925130,-0.0
 3791338,0.,1.77260621,0.95565254,0.,0.09881465,0.00017289,0.,-0.016243
 80,-0.97225484,0.,0.00466225,0.,0.,-0.00197853,0.,0.,-0.01313067,0.101
 42278,0.,-0.14690450,-0.00569907,0.,0.01785389,-0.10143471,0.,0.116909
 41,0.19262487,0.04741752,-0.09519451,0.00257905,-0.00296060,0.00461310
 ,0.01299804,-0.00614114,0.00492973,-0.20889807,0.01074233,-0.24355438,
 -0.05904619,-0.00315331,-0.00996159,0.01673890,0.01654470,0.00044065,0
 .00450242,-0.03719286,0.25777362,-0.09650125,-0.03303120,0.07791208,-0
 .00065581,0.00822794,0.01824961,0.00964208,0.00769885,0.00607196,0.098
 79456,0.02263532,-0.09442381,0.19262487,-0.04741752,-0.09519451,0.0025
 7905,0.00296060,0.00461310,0.01299804,0.00614115,0.00492973,0.00806158
 ,0.01825101,-0.01371410,-0.20889807,-0.01074232,-0.24355437,0.05904619
 ,0.00315331,-0.00996159,-0.01673890,-0.01654470,0.00044064,-0.00450242
 ,-0.01825101,0.01473812,-0.01766103,0.03719286,0.25777362,-0.09650126,
 0.03303119,0.07791208,-0.00065581,-0.00822794,0.01824961,0.00964208,-0
 .00769885,0.00607196,-0.01371410,0.01766103,0.00035709,0.09879456,-0.0
 2263532,-0.09442381,-1.65078951,0.00000110,0.99342549,0.47017259,0.000
 00084,-0.31764507,-0.02034698,-0.00000028,0.06560982,0.00122276,-0.000
 00028,-0.02459961,-0.00000074,0.00000012,-0.00044158,0.03051047,-0.000
 00075,0.00869810,-0.04427474,0.00000043,-0.01099202,1.11425312,-0.0000
 0078,0.03257308,0.00747187,0.00000030,-0.00224834,-1.13760690,-0.00000
 077,-0.06517266,-0.00000002,-0.00000005,0.00113574,0.00000033,0.000000
 43,0.04385310,0.07551592,-0.00000002,-0.20813463,-0.00973937,-0.000000
 16,0.00216323,-0.06823745,-0.00000003,0.19689408,0.26220093,-0.3156358
 7,-0.28380726,0.00991785,0.00547403,0.00799591,0.01272501,-0.00128547,
 0.00330469,-0.27388212,-0.34580741,-0.45950903,-0.34231509,0.00296456,
 0.00498205,0.01802782,0.02329061,0.00530909,0.00310981,0.30953216,0.44
 153835,-0.29296323,-0.33431120,0.24651811,-0.00057283,0.01061592,0.003
 92014,0.01916610,0.01275640,0.00454021,0.28952946,0.31123921,-0.237764
 55,0.26220170,0.31563583,-0.28380723,0.00991759,-0.00547417,0.00799630
 ,0.01272357,0.00128587,0.00330466,-0.00359619,0.01521194,-0.01759403,-
 0.27388121,0.34580736,-0.45951002,0.34231500,-0.00296435,0.00498203,-0
 .01802783,-0.02329056,0.00530908,-0.00310960,-0.01521295,0.02711596,-0
 .01243045,-0.30953137,0.44153937,-0.29296320,0.33431113,0.24651892,-0.
 00057327,-0.01061546,0.00391856,0.01916691,-0.01275669,0.00453983,-0.0
 1759403,0.01242974,-0.00904698,0.28952906,-0.31123860,-0.23776341,-0.4
 6114063,-0.00000023,0.18427523,-0.36397839,-0.00000022,-0.35308569,-0.
 02477998,0.,0.05545610,-0.00235688,0.,-0.01641170,0.,0.,0.00304918,0.0
 6788582,0.,0.00738509,-0.04242928,0.,-0.01091696,-0.03362268,-0.000000
 02,0.55089158,0.02067555,0.,-0.02213234,-0.02170178,-0.00000002,0.4308
 0267,0.,0.,0.00071291,0.,0.00000002,-0.42546334,0.56597264,0.,0.125726
 66,-0.00640107,0.,0.00484485,-0.54932329,0.,-0.12915481,0.24353124,0.0
 1087654,-0.12081408,0.00732220,-0.00080979,-0.00167230,0.02210779,-0.0
 0278437,-0.00304992,-0.27587210,-0.02929309,-0.30701591,-0.11643704,0.
 00123627,-0.00064588,0.01069065,0.02138636,-0.00780895,-0.00337240,-0.
 00627408,0.31561415,-0.13980370,-0.11875049,0.09796461,0.00191193,0.01
 053820,0.00319751,0.01049218,0.00598582,-0.00070699,0.13801024,0.10085
 331,-0.09367041,0.24353132,-0.01087629,-0.12081421,0.00732220,0.000809
 79,-0.00167230,0.02210779,0.00278437,-0.00304991,0.01027635,0.01813640
 ,-0.01304516,-0.27587219,0.02929334,-0.30701611,0.11643725,-0.00123628
 ,-0.00064588,-0.01069066,-0.02138637,-0.00780895,0.00337240,-0.0181364
 0,0.01929301,-0.01075696,0.00627385,0.31561435,-0.13980383,0.11875069,
 0.09796475,0.00191193,-0.01053820,0.00319751,0.01049218,-0.00598582,-0
 .00070700,-0.01304516,0.01075696,0.00138220,0.13801036,-0.10085351,-0.
 09367054\\@


 MUD THROWN IS GROUND LOST -- FROM A TEA BAG
 Job cpu time:       0 days  0 hours 10 minutes 44.0 seconds.
 File lengths (MBytes):  RWF=     43 Int=      0 D2E=      0 Chk=     38 Scr=      1
 Normal termination of Gaussian 09 at Wed Feb 26 13:36:19 2020.
