 Entering Gaussian System, Link 0=g09
 Initial command:
 /soft/gaussian/09-e.01/g09/l1.exe "/scratch/kmoore/Gau-31973.inp" -scrdir="/scratch/kmoore"
 Entering Link 1 = /soft/gaussian/09-e.01/g09/l1.exe PID=     31974.
  
 Copyright (c) 1988,1990,1992,1993,1995,1998,2003,2009,2015,
            Gaussian, Inc.  All Rights Reserved.
  
 This is part of the Gaussian(R) 09 program.  It is based on
 the Gaussian(R) 03 system (copyright 2003, Gaussian, Inc.),
 the Gaussian(R) 98 system (copyright 1998, Gaussian, Inc.),
 the Gaussian(R) 94 system (copyright 1995, Gaussian, Inc.),
 the Gaussian 92(TM) system (copyright 1992, Gaussian, Inc.),
 the Gaussian 90(TM) system (copyright 1990, Gaussian, Inc.),
 the Gaussian 88(TM) system (copyright 1988, Gaussian, Inc.),
 the Gaussian 86(TM) system (copyright 1986, Carnegie Mellon
 University), and the Gaussian 82(TM) system (copyright 1983,
 Carnegie Mellon University). Gaussian is a federally registered
 trademark of Gaussian, Inc.
  
 This software contains proprietary and confidential information,
 including trade secrets, belonging to Gaussian, Inc.
  
 This software is provided under written license and may be
 used, copied, transmitted, or stored only in accord with that
 written license.
  
 The following legend is applicable only to US Government
 contracts under FAR:
  
                    RESTRICTED RIGHTS LEGEND
  
 Use, reproduction and disclosure by the US Government is
 subject to restrictions as set forth in subparagraphs (a)
 and (c) of the Commercial Computer Software - Restricted
 Rights clause in FAR 52.227-19.
  
 Gaussian, Inc.
 340 Quinnipiac St., Bldg. 40, Wallingford CT 06492
  
  
 ---------------------------------------------------------------
 Warning -- This program may not be used in any manner that
 competes with the business of Gaussian, Inc. or will provide
 assistance to any competitor of Gaussian, Inc.  The licensee
 of this program is prohibited from giving any competitor of
 Gaussian, Inc. access to this program.  By using this program,
 the user acknowledges that Gaussian, Inc. is engaged in the
 business of creating and licensing software in the field of
 computational chemistry and represents and warrants to the
 licensee that it is not a competitor of Gaussian, Inc. and that
 it will not use this program in any manner prohibited above.
 ---------------------------------------------------------------
  

 Cite this work as:
 Gaussian 09, Revision E.01,
 M. J. Frisch, G. W. Trucks, H. B. Schlegel, G. E. Scuseria, 
 M. A. Robb, J. R. Cheeseman, G. Scalmani, V. Barone, B. Mennucci, 
 G. A. Petersson, H. Nakatsuji, M. Caricato, X. Li, H. P. Hratchian, 
 A. F. Izmaylov, J. Bloino, G. Zheng, J. L. Sonnenberg, M. Hada, 
 M. Ehara, K. Toyota, R. Fukuda, J. Hasegawa, M. Ishida, T. Nakajima, 
 Y. Honda, O. Kitao, H. Nakai, T. Vreven, J. A. Montgomery, Jr., 
 J. E. Peralta, F. Ogliaro, M. Bearpark, J. J. Heyd, E. Brothers, 
 K. N. Kudin, V. N. Staroverov, T. Keith, R. Kobayashi, J. Normand, 
 K. Raghavachari, A. Rendell, J. C. Burant, S. S. Iyengar, J. Tomasi, 
 M. Cossi, N. Rega, J. M. Millam, M. Klene, J. E. Knox, J. B. Cross, 
 V. Bakken, C. Adamo, J. Jaramillo, R. Gomperts, R. E. Stratmann, 
 O. Yazyev, A. J. Austin, R. Cammi, C. Pomelli, J. W. Ochterski, 
 R. L. Martin, K. Morokuma, V. G. Zakrzewski, G. A. Voth, 
 P. Salvador, J. J. Dannenberg, S. Dapprich, A. D. Daniels, 
 O. Farkas, J. B. Foresman, J. V. Ortiz, J. Cioslowski, 
 and D. J. Fox, Gaussian, Inc., Wallingford CT, 2013.
 
 ******************************************
 Gaussian 09:  ES64L-G09RevE.01 30-Nov-2015
                24-Feb-2021 
 ******************************************
 %mem=20GB
 %NProcShared=10
 Will use up to   10 processors via shared memory.
 ----------------------------------------------------------------------
 #P wb97xd/6-31g* # SCF=(xqc) # int=ultrafine # POpt=() # Freq=(ANHARM,
 VIBROT)
 ----------------------------------------------------------------------
 1/10=7,14=-1,26=4,38=1,80=1/1,3;
 2/12=2,17=6,18=5,29=3,40=1/2;
 3/5=1,6=6,7=1,11=2,16=1,25=1,30=1,71=1,74=-58,75=-5/1,2,3;
 4//1;
 5/5=2,8=3,13=1,38=5/2,8;
 6/7=2,8=2,9=2,10=2,28=1/1;
 7/29=1/1,2,3,16;
 1/10=7,14=-1,26=4,80=1/3(2);
 2/29=3/2;
 99/8=1100/99;
 2/29=3/2;
 3/5=1,6=6,7=1,11=2,16=1,25=1,30=1,71=1,74=-58,75=-5/1,2,3;
 4/5=5,16=3,69=1/1;
 5/5=2,8=3,13=1,38=5/2,8;
 7//1,2,3,16;
 1/14=-1,26=4,80=1/3(-5);
 2/29=3/2;
 6/7=2,8=2,9=2,10=2,19=2,28=1/1;
 99/8=1100,9=1/99;
 Leave Link    1 at Wed Feb 24 12:13:15 2021, MaxMem=  2684354560 cpu:         0.4
 (Enter /soft/gaussian/09-e.01/g09/l101.exe)
 --------
 comment:
 --------
 Symbolic Z-matrix:
 Charge =  0 Multiplicity = 1
 C
 C                    1    R1
 H                    1    R2       2    A2
 H                    1    R3       2    A3       3    D3       0
 H                    1    R4       2    A4       3    D4       0
 H                    2    R5       1    A5       3    D5       0
 H                    2    R6       1    A6       6    D6       0
 H                    2    R7       1    A7       6    D7       0
       Variables:
  R1                    1.51206                  
  R2                    1.09408                  
  R3                    1.09408                  
  R4                    1.09408                  
  R5                    1.09408                  
  R6                    1.09408                  
  R7                    1.09408                  
  A2                  110.56798                  
  A3                  110.56797                  
  A4                  110.56791                  
  A5                  110.56792                  
  A6                  110.56797                  
  A7                  110.56799                  
  D3                  239.99993                  
  D4                  119.99996                  
  D5                   60.00007                  
  D6                  119.99999                  
  D7                  240.                       
 
 NAtoms=      8 NQM=        8 NQMF=       0 NMMI=      0 NMMIF=      0
                NMic=       0 NMicF=      0.
                    Isotopes and Nuclear Properties:
 (Nuclear quadrupole moments (NQMom) in fm**2, nuclear magnetic moments (NMagM)
  in nuclear magnetons)

  Atom         1           2           3           4           5           6           7           8
 IAtWgt=          12          12           1           1           1           1           1           1
 AtmWgt=  12.0000000  12.0000000   1.0078250   1.0078250   1.0078250   1.0078250   1.0078250   1.0078250
 NucSpn=           0           0           1           1           1           1           1           1
 AtZEff=   0.0000000   0.0000000   0.0000000   0.0000000   0.0000000   0.0000000   0.0000000   0.0000000
 NQMom=    0.0000000   0.0000000   0.0000000   0.0000000   0.0000000   0.0000000   0.0000000   0.0000000
 NMagM=    0.0000000   0.0000000   2.7928460   2.7928460   2.7928460   2.7928460   2.7928460   2.7928460
 AtZNuc=   6.0000000   6.0000000   1.0000000   1.0000000   1.0000000   1.0000000   1.0000000   1.0000000
 Leave Link  101 at Wed Feb 24 12:13:15 2021, MaxMem=  2684354560 cpu:         0.7
 (Enter /soft/gaussian/09-e.01/g09/l103.exe)

 GradGradGradGradGradGradGradGradGradGradGradGradGradGradGradGradGradGrad
 Berny optimization.
 Initialization pass.
                       ----------------------------
                       !    Initial Parameters    !
                       ! (Angstroms and Degrees)  !
 ----------------------                            ----------------------
 !      Name          Value   Derivative information (Atomic Units)     !
 ------------------------------------------------------------------------
 !       R1          1.5121   estimate D2E/DX2                          !
 !       R2          1.0941   estimate D2E/DX2                          !
 !       R3          1.0941   estimate D2E/DX2                          !
 !       R4          1.0941   estimate D2E/DX2                          !
 !       R5          1.0941   estimate D2E/DX2                          !
 !       R6          1.0941   estimate D2E/DX2                          !
 !       R7          1.0941   estimate D2E/DX2                          !
 !       A2        110.568    estimate D2E/DX2                          !
 !       A3        110.568    estimate D2E/DX2                          !
 !       A4        110.5679   estimate D2E/DX2                          !
 !       A5        110.5679   estimate D2E/DX2                          !
 !       A6        110.568    estimate D2E/DX2                          !
 !       A7        110.568    estimate D2E/DX2                          !
 !       D3        239.9999   estimate D2E/DX2                          !
 !       D4        120.0      estimate D2E/DX2                          !
 !       D5         60.0001   estimate D2E/DX2                          !
 !       D6        120.0      estimate D2E/DX2                          !
 !       D7        240.0      estimate D2E/DX2                          !
 ------------------------------------------------------------------------
 Trust Radius=3.00D-01 FncErr=1.00D-07 GrdErr=1.00D-06
 Number of steps in this run=     28 maximum allowed number of steps=    100.
 GradGradGradGradGradGradGradGradGradGradGradGradGradGradGradGradGradGrad

 Leave Link  103 at Wed Feb 24 12:13:15 2021, MaxMem=  2684354560 cpu:         0.2
 (Enter /soft/gaussian/09-e.01/g09/l202.exe)
 ---------------------------------------------------------------------------------------------------
                            Z-MATRIX (ANGSTROMS AND DEGREES)
   CD    Cent   Atom    N1       Length/X        N2       Alpha/Y        N3        Beta/Z          J
 ---------------------------------------------------------------------------------------------------
      1      1  C 
      2      2  C        1   1.512058(     1)
      3      3  H        1   1.094084(     2)      2  110.568(     8)
      4      4  H        1   1.094084(     3)      2  110.568(     9)      3  240.000(    14)      0
      5      5  H        1   1.094084(     4)      2  110.568(    10)      3  120.000(    15)      0
      6      6  H        2   1.094084(     5)      1  110.568(    11)      3   60.000(    16)      0
      7      7  H        2   1.094084(     6)      1  110.568(    12)      6  120.000(    17)      0
      8      8  H        2   1.094084(     7)      1  110.568(    13)      6  240.000(    18)      0
 ---------------------------------------------------------------------------------------------------
                         Z-Matrix orientation:                         
 ---------------------------------------------------------------------
 Center     Atomic      Atomic             Coordinates (Angstroms)
 Number     Number       Type             X           Y           Z
 ---------------------------------------------------------------------
      1          6           0        0.000000    0.000000    0.000000
      2          6           0        0.000000    0.000000    1.512058
      3          1           0        1.024343    0.000000   -0.384372
      4          1           0       -0.512172    0.887106   -0.384372
      5          1           0       -0.512171   -0.887108   -0.384371
      6          1           0        0.512170    0.887108    1.896429
      7          1           0       -1.024343   -0.000001    1.896430
      8          1           0        0.512172   -0.887106    1.896430
 ---------------------------------------------------------------------
                    Distance matrix (angstroms):
                    1          2          3          4          5
     1  C    0.000000
     2  C    1.512058   0.000000
     3  H    1.094084   2.155394   0.000000
     4  H    1.094084   2.155394   1.774214   0.000000
     5  H    1.094084   2.155393   1.774214   1.774214   0.000000
     6  H    2.155394   1.094084   2.500267   2.500266   3.065805
     7  H    2.155394   1.094084   3.065806   2.500267   2.500266
     8  H    2.155394   1.094084   2.500267   3.065806   2.500266
                    6          7          8
     6  H    0.000000
     7  H    1.774214   0.000000
     8  H    1.774214   1.774214   0.000000
 This structure is nearly, but not quite of a higher symmetry.
 Consider Symm=Loose if the higher symmetry is desired.
 Stoichiometry    C2H6
 Framework group  CI[X(C2H6)]
 Deg. of freedom     9
 Full point group                 CI      NOp   2
 Largest Abelian subgroup         CI      NOp   2
 Largest concise Abelian subgroup CI      NOp   2
                         Standard orientation:                         
 ---------------------------------------------------------------------
 Center     Atomic      Atomic             Coordinates (Angstroms)
 Number     Number       Type             X           Y           Z
 ---------------------------------------------------------------------
      1          6           0        0.000000    0.000000   -0.756029
      2          6           0       -0.000000   -0.000000    0.756029
      3          1           0        1.024343    0.000000   -1.140401
      4          1           0       -0.512172    0.887106   -1.140401
      5          1           0       -0.512171   -0.887108   -1.140400
      6          1           0        0.512171    0.887108    1.140400
      7          1           0       -1.024343   -0.000000    1.140401
      8          1           0        0.512172   -0.887106    1.140401
 ---------------------------------------------------------------------
 Rotational constants (GHZ):     79.6507900     20.4156236     20.4156215
 Leave Link  202 at Wed Feb 24 12:13:15 2021, MaxMem=  2684354560 cpu:         0.1
 (Enter /soft/gaussian/09-e.01/g09/l301.exe)
 Standard basis: 6-31G(d) (6D, 7F)
 Ernie: Thresh=  0.10000D-02 Tol=  0.10000D-05 Strict=F.
 There are    21 symmetry adapted cartesian basis functions of AG  symmetry.
 There are    21 symmetry adapted cartesian basis functions of AU  symmetry.
 There are    21 symmetry adapted basis functions of AG  symmetry.
 There are    21 symmetry adapted basis functions of AU  symmetry.
    42 basis functions,    80 primitive gaussians,    42 cartesian basis functions
     9 alpha electrons        9 beta electrons
       nuclear repulsion energy        42.4268830084 Hartrees.
 IExCor= 4639 DFT=T Ex+Corr=wB97XD ExCW=0 ScaHFX=  1.000000
 ScaDFX=  1.000000  1.000000  1.000000  1.000000 ScalE2=  1.000000  1.000000
 IRadAn=      5 IRanWt=     -1 IRanGd=            0 ICorTp=0 IEmpDi=121
  HFx wShort=  0.000000 wLong=  0.200000 cFull=  0.222036 cShort=  0.000000 cLong=  0.777964
  DFx wShort=  0.000000 wLong=  0.200000 cFull=  0.000000 cShort=  0.000000 cLong=  1.000000
 NAtoms=    8 NActive=    8 NUniq=    4 SFac= 4.00D+00 NAtFMM=   60 NAOKFM=F Big=F
 Integral buffers will be    131072 words long.
 Raffenetti 2 integral format.
 Two-electron integral symmetry is turned on.
 R6Disp:  Grimme-D2 Dispersion energy=       -0.0018916243 Hartrees.
 Nuclear repulsion after empirical dispersion term =       42.4249913842 Hartrees.
 Leave Link  301 at Wed Feb 24 12:13:15 2021, MaxMem=  2684354560 cpu:         0.5
 (Enter /soft/gaussian/09-e.01/g09/l302.exe)
 NPDir=0 NMtPBC=     1 NCelOv=     1 NCel=       1 NClECP=     1 NCelD=      1
         NCelK=      1 NCelE2=     1 NClLst=     1 CellRange=     0.0.
 One-electron integrals computed using PRISM.
 One-electron integral symmetry used in STVInt
 NBasis=    42 RedAO= T EigKep=  5.65D-03  NBF=    21    21
 NBsUse=    42 1.00D-06 EigRej= -1.00D+00 NBFU=    21    21
 Precomputing XC quadrature grid using
 IXCGrd= 4 IRadAn=           5 IRanWt=          -1 IRanGd=           0 AccXCQ= 0.00D+00.
 Generated NRdTot=       0 NPtTot=           0 NUsed=           0 NTot=          32
 NSgBfM=    42    42    42    42    42 MxSgAt=     8 MxSgA2=     8.
 Leave Link  302 at Wed Feb 24 12:13:16 2021, MaxMem=  2684354560 cpu:         1.7
 (Enter /soft/gaussian/09-e.01/g09/l303.exe)
 DipDrv:  MaxL=1.
 Leave Link  303 at Wed Feb 24 12:13:16 2021, MaxMem=  2684354560 cpu:         0.2
 (Enter /soft/gaussian/09-e.01/g09/l401.exe)
 ExpMin= 1.61D-01 ExpMax= 3.05D+03 ExpMxC= 4.57D+02 IAcc=3 IRadAn=         5 AccDes= 0.00D+00
 Harris functional with IExCor= 4639 and IRadAn=       5 diagonalized for initial guess.
 HarFok:  IExCor= 4639 AccDes= 0.00D+00 IRadAn=         5 IDoV= 1 UseB2=F ITyADJ=14
 ICtDFT=  3500011 ScaDFX=  1.000000  1.000000  1.000000  1.000000
 FoFCou: FMM=F IPFlag=           0 FMFlag=      100000 FMFlg1=           0
         NFxFlg=           0 DoJE=T BraDBF=F KetDBF=T FulRan=T
         wScrn=  0.000000 ICntrl=     500 IOpCl=  0 I1Cent=   200000004 NGrid=           0
         NMat0=    1 NMatS0=      1 NMatT0=    0 NMatD0=    1 NMtDS0=    0 NMtDT0=    0
 Petite list used in FoFCou.
 Harris En= -75.5952161735162    
 JPrj=0 DoOrth=F DoCkMO=F.
 Initial guess orbital symmetries:
       Occupied  (AG) (AU) (AG) (AU) (AU) (AU) (AG) (AG) (AG)
       Virtual   (AG) (AU) (AU) (AU) (AG) (AG) (AU) (AG) (AU) (AU)
                 (AG) (AG) (AU) (AU) (AU) (AG) (AG) (AG) (AU) (AG)
                 (AU) (AU) (AU) (AG) (AG) (AG) (AU) (AU) (AG) (AG)
                 (AU) (AG) (AU)
 The electronic state of the initial guess is 1-AG.
 Leave Link  401 at Wed Feb 24 12:13:16 2021, MaxMem=  2684354560 cpu:         2.1
 (Enter /soft/gaussian/09-e.01/g09/l502.exe)
 Closed shell SCF:
 Using DIIS extrapolation, IDIIS=  1040.
 Integral symmetry usage will be decided dynamically.
 Keep R1 ints in memory in symmetry-blocked form, NReq=1693804.
 IVT=       12050 IEndB=       12050 NGot=  2684354560 MDV=  2684135997
 LenX=  2684135997 LenY=  2684133792
 Requested convergence on RMS density matrix=1.00D-08 within  64 cycles.
 Requested convergence on MAX density matrix=1.00D-06.
 Requested convergence on             energy=1.00D-06.
 No special actions if energy rises.
 FoFCou: FMM=F IPFlag=           0 FMFlag=           0 FMFlg1=           0
         NFxFlg=           0 DoJE=F BraDBF=F KetDBF=F FulRan=T
         wScrn=  0.000000 ICntrl=     600 IOpCl=  0 I1Cent=           0 NGrid=           0
         NMat0=    1 NMatS0=    903 NMatT0=    0 NMatD0=    1 NMtDS0=    0 NMtDT0=    0
 Petite list used in FoFCou.
 Integral accuracy reduced to 1.0D-05 until final iterations.

 Cycle   1  Pass 0  IDiag  1:
 E= -79.7711484942351    
 DIIS: error= 7.63D-02 at cycle   1 NSaved=   1.
 NSaved= 1 IEnMin= 1 EnMin= -79.7711484942351     IErMin= 1 ErrMin= 7.63D-02
 ErrMax= 7.63D-02  0.00D+00 EMaxC= 1.00D-01 BMatC= 7.87D-02 BMatP= 7.87D-02
 IDIUse=3 WtCom= 2.37D-01 WtEn= 7.63D-01
 Coeff-Com:  0.100D+01
 Coeff-En:   0.100D+01
 Coeff:      0.100D+01
 Gap=     0.588 Goal=   None    Shift=    0.000
 GapD=    0.588 DampG=2.000 DampE=0.500 DampFc=1.0000 IDamp=-1.
 RMSDP=5.26D-03 MaxDP=4.75D-02              OVMax= 6.04D-02

 Cycle   2  Pass 0  IDiag  1:
 E= -79.7916626024592     Delta-E=       -0.020514108224 Rises=F Damp=F
 DIIS: error= 1.70D-02 at cycle   2 NSaved=   2.
 NSaved= 2 IEnMin= 2 EnMin= -79.7916626024592     IErMin= 2 ErrMin= 1.70D-02
 ErrMax= 1.70D-02  0.00D+00 EMaxC= 1.00D-01 BMatC= 1.03D-02 BMatP= 7.87D-02
 IDIUse=3 WtCom= 8.30D-01 WtEn= 1.70D-01
 Coeff-Com:  0.177D+00 0.823D+00
 Coeff-En:   0.471D-01 0.953D+00
 Coeff:      0.155D+00 0.845D+00
 Gap=     0.616 Goal=   None    Shift=    0.000
 RMSDP=2.63D-03 MaxDP=2.84D-02 DE=-2.05D-02 OVMax= 3.26D-02

 Cycle   3  Pass 0  IDiag  1:
 E= -79.7991538833992     Delta-E=       -0.007491280940 Rises=F Damp=F
 DIIS: error= 8.45D-03 at cycle   3 NSaved=   3.
 NSaved= 3 IEnMin= 3 EnMin= -79.7991538833992     IErMin= 3 ErrMin= 8.45D-03
 ErrMax= 8.45D-03  0.00D+00 EMaxC= 1.00D-01 BMatC= 2.60D-03 BMatP= 1.03D-02
 IDIUse=3 WtCom= 9.15D-01 WtEn= 8.45D-02
 Coeff-Com:  0.705D-02 0.335D+00 0.658D+00
 Coeff-En:   0.000D+00 0.118D+00 0.882D+00
 Coeff:      0.646D-02 0.317D+00 0.677D+00
 Gap=     0.608 Goal=   None    Shift=    0.000
 RMSDP=9.61D-04 MaxDP=1.03D-02 DE=-7.49D-03 OVMax= 1.23D-02

 Cycle   4  Pass 0  IDiag  1:
 E= -79.8016773533721     Delta-E=       -0.002523469973 Rises=F Damp=F
 DIIS: error= 4.13D-04 at cycle   4 NSaved=   4.
 NSaved= 4 IEnMin= 4 EnMin= -79.8016773533721     IErMin= 4 ErrMin= 4.13D-04
 ErrMax= 4.13D-04  0.00D+00 EMaxC= 1.00D-01 BMatC= 8.72D-06 BMatP= 2.60D-03
 IDIUse=3 WtCom= 9.96D-01 WtEn= 4.13D-03
 Coeff-Com: -0.558D-03-0.440D-01-0.271D-01 0.107D+01
 Coeff-En:   0.000D+00 0.000D+00 0.000D+00 0.100D+01
 Coeff:     -0.556D-03-0.438D-01-0.270D-01 0.107D+01
 Gap=     0.609 Goal=   None    Shift=    0.000
 RMSDP=7.31D-05 MaxDP=5.62D-04 DE=-2.52D-03 OVMax= 1.02D-03

 Cycle   5  Pass 0  IDiag  1:
 E= -79.8016862113998     Delta-E=       -0.000008858028 Rises=F Damp=F
 DIIS: error= 4.45D-05 at cycle   5 NSaved=   5.
 NSaved= 5 IEnMin= 5 EnMin= -79.8016862113998     IErMin= 5 ErrMin= 4.45D-05
 ErrMax= 4.45D-05  0.00D+00 EMaxC= 1.00D-01 BMatC= 6.30D-08 BMatP= 8.72D-06
 IDIUse=1 WtCom= 1.00D+00 WtEn= 0.00D+00
 Coeff-Com: -0.316D-03-0.175D-01-0.283D-01 0.626D-01 0.983D+00
 Coeff:     -0.316D-03-0.175D-01-0.283D-01 0.626D-01 0.983D+00
 Gap=     0.609 Goal=   None    Shift=    0.000
 RMSDP=1.39D-05 MaxDP=9.16D-05 DE=-8.86D-06 OVMax= 1.31D-04

 Cycle   6  Pass 0  IDiag  1:
 E= -79.8016863049034     Delta-E=       -0.000000093504 Rises=F Damp=F
 DIIS: error= 3.75D-06 at cycle   6 NSaved=   6.
 NSaved= 6 IEnMin= 6 EnMin= -79.8016863049034     IErMin= 6 ErrMin= 3.75D-06
 ErrMax= 3.75D-06  0.00D+00 EMaxC= 1.00D-01 BMatC= 4.05D-10 BMatP= 6.30D-08
 IDIUse=1 WtCom= 1.00D+00 WtEn= 0.00D+00
 Coeff-Com:  0.378D-04 0.186D-02 0.268D-02-0.179D-01-0.867D-01 0.110D+01
 Coeff:      0.378D-04 0.186D-02 0.268D-02-0.179D-01-0.867D-01 0.110D+01
 Gap=     0.609 Goal=   None    Shift=    0.000
 RMSDP=1.99D-06 MaxDP=1.70D-05 DE=-9.35D-08 OVMax= 2.13D-05

 Initial convergence to 1.0D-05 achieved.  Increase integral accuracy.
 Cycle   7  Pass 1  IDiag  1:
 E= -79.8016982639041     Delta-E=       -0.000011959001 Rises=F Damp=F
 DIIS: error= 3.05D-05 at cycle   1 NSaved=   1.
 NSaved= 1 IEnMin= 1 EnMin= -79.8016982639041     IErMin= 1 ErrMin= 3.05D-05
 ErrMax= 3.05D-05  0.00D+00 EMaxC= 1.00D-01 BMatC= 1.77D-08 BMatP= 1.77D-08
 IDIUse=1 WtCom= 1.00D+00 WtEn= 0.00D+00
 Coeff-Com:  0.100D+01
 Coeff:      0.100D+01
 Gap=     0.609 Goal=   None    Shift=    0.000
 RMSDP=1.99D-06 MaxDP=1.70D-05 DE=-1.20D-05 OVMax= 3.45D-05

 Cycle   8  Pass 1  IDiag  1:
 E= -79.8016982810622     Delta-E=       -0.000000017158 Rises=F Damp=F
 DIIS: error= 4.71D-06 at cycle   2 NSaved=   2.
 NSaved= 2 IEnMin= 2 EnMin= -79.8016982810622     IErMin= 2 ErrMin= 4.71D-06
 ErrMax= 4.71D-06  0.00D+00 EMaxC= 1.00D-01 BMatC= 3.17D-10 BMatP= 1.77D-08
 IDIUse=1 WtCom= 1.00D+00 WtEn= 0.00D+00
 Coeff-Com: -0.591D-01 0.106D+01
 Coeff:     -0.591D-01 0.106D+01
 Gap=     0.609 Goal=   None    Shift=    0.000
 RMSDP=5.22D-07 MaxDP=4.33D-06 DE=-1.72D-08 OVMax= 7.54D-06

 Cycle   9  Pass 1  IDiag  1:
 E= -79.8016982814052     Delta-E=       -0.000000000343 Rises=F Damp=F
 DIIS: error= 1.32D-06 at cycle   3 NSaved=   3.
 NSaved= 3 IEnMin= 3 EnMin= -79.8016982814052     IErMin= 3 ErrMin= 1.32D-06
 ErrMax= 1.32D-06  0.00D+00 EMaxC= 1.00D-01 BMatC= 5.75D-11 BMatP= 3.17D-10
 IDIUse=1 WtCom= 1.00D+00 WtEn= 0.00D+00
 Coeff-Com: -0.338D-01 0.295D+00 0.739D+00
 Coeff:     -0.338D-01 0.295D+00 0.739D+00
 Gap=     0.609 Goal=   None    Shift=    0.000
 RMSDP=1.67D-07 MaxDP=1.62D-06 DE=-3.43D-10 OVMax= 2.32D-06

 Cycle  10  Pass 1  IDiag  1:
 E= -79.8016982814571     Delta-E=       -0.000000000052 Rises=F Damp=F
 DIIS: error= 3.52D-07 at cycle   4 NSaved=   4.
 NSaved= 4 IEnMin= 4 EnMin= -79.8016982814571     IErMin= 4 ErrMin= 3.52D-07
 ErrMax= 3.52D-07  0.00D+00 EMaxC= 1.00D-01 BMatC= 4.14D-12 BMatP= 5.75D-11
 IDIUse=1 WtCom= 1.00D+00 WtEn= 0.00D+00
 Coeff-Com: -0.646D-02 0.260D-01 0.224D+00 0.756D+00
 Coeff:     -0.646D-02 0.260D-01 0.224D+00 0.756D+00
 Gap=     0.609 Goal=   None    Shift=    0.000
 RMSDP=4.52D-08 MaxDP=4.26D-07 DE=-5.18D-11 OVMax= 6.94D-07

 Cycle  11  Pass 1  IDiag  1:
 E= -79.8016982814615     Delta-E=       -0.000000000004 Rises=F Damp=F
 DIIS: error= 4.84D-08 at cycle   5 NSaved=   5.
 NSaved= 5 IEnMin= 5 EnMin= -79.8016982814615     IErMin= 5 ErrMin= 4.84D-08
 ErrMax= 4.84D-08  0.00D+00 EMaxC= 1.00D-01 BMatC= 5.99D-14 BMatP= 4.14D-12
 IDIUse=1 WtCom= 1.00D+00 WtEn= 0.00D+00
 Coeff-Com:  0.149D-02-0.127D-01-0.429D-01-0.139D-01 0.107D+01
 Coeff:      0.149D-02-0.127D-01-0.429D-01-0.139D-01 0.107D+01
 Gap=     0.609 Goal=   None    Shift=    0.000
 RMSDP=1.53D-08 MaxDP=8.45D-08 DE=-4.43D-12 OVMax= 1.73D-07

 Cycle  12  Pass 1  IDiag  1:
 E= -79.8016982814618     Delta-E=       -0.000000000000 Rises=F Damp=F
 DIIS: error= 5.56D-09 at cycle   6 NSaved=   6.
 NSaved= 6 IEnMin= 6 EnMin= -79.8016982814618     IErMin= 6 ErrMin= 5.56D-09
 ErrMax= 5.56D-09  0.00D+00 EMaxC= 1.00D-01 BMatC= 8.13D-16 BMatP= 5.99D-14
 IDIUse=1 WtCom= 1.00D+00 WtEn= 0.00D+00
 Coeff-Com: -0.614D-06 0.507D-03-0.193D-02-0.112D-01-0.853D-01 0.110D+01
 Coeff:     -0.614D-06 0.507D-03-0.193D-02-0.112D-01-0.853D-01 0.110D+01
 Gap=     0.609 Goal=   None    Shift=    0.000
 RMSDP=2.72D-09 MaxDP=1.44D-08 DE=-2.84D-13 OVMax= 2.59D-08

 SCF Done:  E(RwB97XD) =  -79.8016982815     A.U. after   12 cycles
            NFock= 12  Conv=0.27D-08     -V/T= 2.0100
 KE= 7.901172908144D+01 PE=-2.686946435559D+02 EE= 6.745622480883D+01
 Leave Link  502 at Wed Feb 24 12:13:17 2021, MaxMem=  2684354560 cpu:         6.9
 (Enter /soft/gaussian/09-e.01/g09/l508.exe)
 QCSCF skips out because SCF is already converged.
 Leave Link  508 at Wed Feb 24 12:13:17 2021, MaxMem=  2684354560 cpu:         0.0
 (Enter /soft/gaussian/09-e.01/g09/l601.exe)
 Copying SCF densities to generalized density rwf, IOpCl= 0 IROHF=0.

 **********************************************************************

            Population analysis using the SCF density.

 **********************************************************************

 Orbital symmetries:
       Occupied  (AG) (AU) (AG) (AU) (AU) (AU) (AG) (AG) (AG)
       Virtual   (AG) (AU) (AU) (AU) (AG) (AG) (AU) (AG) (AU) (AU)
                 (AG) (AG) (AU) (AU) (AU) (AG) (AG) (AG) (AU) (AG)
                 (AU) (AU) (AU) (AG) (AG) (AG) (AU) (AU) (AG) (AG)
                 (AU) (AG) (AU)
 The electronic state is 1-AG.
 Alpha  occ. eigenvalues --  -10.27960 -10.27937  -0.85088  -0.70316  -0.52028
 Alpha  occ. eigenvalues --   -0.52028  -0.44407  -0.41973  -0.41973
 Alpha virt. eigenvalues --    0.18881   0.24701   0.24833   0.24833   0.27447
 Alpha virt. eigenvalues --    0.27447   0.32653   0.59341   0.63726   0.63726
 Alpha virt. eigenvalues --    0.71961   0.71961   0.77480   0.98037   0.98037
 Alpha virt. eigenvalues --    1.00438   1.02541   1.02541   1.08290   1.15731
 Alpha virt. eigenvalues --    1.53433   1.60367   1.60367   2.04813   2.08443
 Alpha virt. eigenvalues --    2.08444   2.37363   2.37363   2.42015   2.42015
 Alpha virt. eigenvalues --    2.69131   4.25614   4.46678
          Condensed to atoms (all electrons):
               1          2          3          4          5          6
     1  C    5.080049   0.354356   0.387823   0.387823   0.387823  -0.036270
     2  C    0.354356   5.080049  -0.036269  -0.036270  -0.036270   0.387823
     3  H    0.387823  -0.036269   0.545563  -0.028614  -0.028614  -0.003706
     4  H    0.387823  -0.036270  -0.028614   0.545564  -0.028614  -0.003706
     5  H    0.387823  -0.036270  -0.028614  -0.028614   0.545564   0.004503
     6  H   -0.036270   0.387823  -0.003706  -0.003706   0.004503   0.545564
     7  H   -0.036269   0.387823   0.004503  -0.003706  -0.003706  -0.028614
     8  H   -0.036270   0.387823  -0.003706   0.004503  -0.003706  -0.028614
               7          8
     1  C   -0.036269  -0.036270
     2  C    0.387823   0.387823
     3  H    0.004503  -0.003706
     4  H   -0.003706   0.004503
     5  H   -0.003706  -0.003706
     6  H   -0.028614  -0.028614
     7  H    0.545563  -0.028614
     8  H   -0.028614   0.545564
 Mulliken charges:
               1
     1  C   -0.489065
     2  C   -0.489065
     3  H    0.163022
     4  H    0.163021
     5  H    0.163021
     6  H    0.163021
     7  H    0.163022
     8  H    0.163021
 Sum of Mulliken charges =  -0.00000
 Mulliken charges with hydrogens summed into heavy atoms:
               1
     1  C   -0.000000
     2  C   -0.000000
 Electronic spatial extent (au):  <R**2>=            107.8813
 Charge=             -0.0000 electrons
 Dipole moment (field-independent basis, Debye):
    X=             -0.0000    Y=              0.0000    Z=             -0.0000  Tot=              0.0000
 Quadrupole moment (field-independent basis, Debye-Ang):
   XX=            -14.5523   YY=            -14.5524   ZZ=            -15.3352
   XY=             -0.0000   XZ=             -0.0000   YZ=             -0.0000
 Traceless Quadrupole moment (field-independent basis, Debye-Ang):
   XX=              0.2609   YY=              0.2609   ZZ=             -0.5219
   XY=             -0.0000   XZ=             -0.0000   YZ=             -0.0000
 Octapole moment (field-independent basis, Debye-Ang**2):
  XXX=             -0.0000  YYY=              0.0000  ZZZ=              0.0000  XYY=             -0.0000
  XXY=             -0.0000  XXZ=             -0.0000  XZZ=             -0.0000  YZZ=             -0.0000
  YYZ=             -0.0000  XYZ=              0.0000
 Hexadecapole moment (field-independent basis, Debye-Ang**3):
 XXXX=            -28.1599 YYYY=            -28.1599 ZZZZ=            -90.5644 XXXY=             -0.0000
 XXXZ=             -1.3644 YYYX=              0.0000 YYYZ=             -0.0000 ZZZX=             -0.0000
 ZZZY=             -0.0000 XXYY=             -9.3866 XXZZ=            -18.5581 YYZZ=            -18.5581
 XXYZ=             -0.0000 YYXZ=              1.3644 ZZXY=             -0.0000
 N-N= 4.242499138418D+01 E-N=-2.686946435895D+02  KE= 7.901172908144D+01
 Symmetry AG   KE= 4.104267120855D+01
 Symmetry AU   KE= 3.796905787289D+01
 No NMR shielding tensors so no spin-rotation constants.
 Leave Link  601 at Wed Feb 24 12:13:17 2021, MaxMem=  2684354560 cpu:         1.5
 (Enter /soft/gaussian/09-e.01/g09/l701.exe)
 Compute integral first derivatives.
 ... and contract with generalized density number  0.
 R6Disp: Adding Grimme-D2 dispersion energy 1st derivatives to the gradient.
 Leave Link  701 at Wed Feb 24 12:13:17 2021, MaxMem=  2684354560 cpu:         1.4
 (Enter /soft/gaussian/09-e.01/g09/l702.exe)
 L702 exits ... SP integral derivatives will be done elsewhere.
 Leave Link  702 at Wed Feb 24 12:13:17 2021, MaxMem=  2684354560 cpu:         0.1
 (Enter /soft/gaussian/09-e.01/g09/l703.exe)
 Compute integral first derivatives, UseDBF=F ICtDFT=           0.
 Integral derivatives from FoFJK, PRISM(SPDF).
 Calling FoFJK, ICntrl=      2127 FMM=F ISym2X=1 I1Cent= 0 IOpClX= 0 NMat=1 NMatS=1 NMatT=0.
 FoFJK:  IHMeth= 1 ICntrl=    2127 DoSepK=T KAlg= 0 I1Cent=   0 FoldK=F
 IRaf=         1 NMat=   1 IRICut=       1 DoRegI=T DoRafI=F ISym2E= 1.
 FoFCou: FMM=F IPFlag=           0 FMFlag=      100000 FMFlg1=         800
         NFxFlg=           0 DoJE=F BraDBF=F KetDBF=F FulRan=T
         wScrn=  0.000000 ICntrl=    2527 IOpCl=  0 I1Cent=           0 NGrid=           0
         NMat0=    1 NMatS0=      1 NMatT0=    0 NMatD0=    1 NMtDS0=    0 NMtDT0=    0
 Petite list used in FoFCou.
 Leave Link  703 at Wed Feb 24 12:13:17 2021, MaxMem=  2684354560 cpu:         3.3
 (Enter /soft/gaussian/09-e.01/g09/l716.exe)
 Dipole        =-3.25260652D-19 5.59448321D-17 0.00000000D+00
 ***** Axes restored to original set *****
 -------------------------------------------------------------------
 Center     Atomic                   Forces (Hartrees/Bohr)
 Number     Number              X              Y              Z
 -------------------------------------------------------------------
      1        6          -0.000001457   -0.000000207   -0.004558765
      2        6           0.000001457    0.000000207    0.004558765
      3        1          -0.000210902    0.000000053   -0.002278200
      4        1           0.000105886   -0.000181799   -0.002280031
      5        1           0.000105833    0.000181814   -0.002280117
      6        1          -0.000105833   -0.000181814    0.002280117
      7        1           0.000210902   -0.000000053    0.002278200
      8        1          -0.000105886    0.000181799    0.002280031
 -------------------------------------------------------------------
 Cartesian Forces:  Max     0.004558765 RMS     0.001744109
 -----------------------------------------------------------------------------------------------
                       Internal Coordinate Forces (Hartree/Bohr or radian)
  Cent   Atom   N1       Length/X         N2         Alpha/Y        N3         Beta/Z          J
 -----------------------------------------------------------------------------------------------
      1  C 
      2  C        1   0.011397(     1)
      3  H        1   0.000603(     2)      2   0.004563(     8)
      4  H        1   0.000604(     3)      2   0.004566(     9)      3   0.000002(    14)     0
      5  H        1   0.000604(     4)      2   0.004566(    10)      3  -0.000001(    15)     0
      6  H        2   0.000604(     5)      1   0.004566(    11)      3   0.000000(    16)     0
      7  H        2   0.000603(     6)      1   0.004563(    12)      6   0.000000(    17)     0
      8  H        2   0.000604(     7)      1   0.004566(    13)      6  -0.000002(    18)     0
 -----------------------------------------------------------------------------------------------
 Internal  Forces:  Max     0.011397113 RMS     0.003779581
 Force constants in Cartesian coordinates: 
                1             2             3             4             5 
      1  0.655508D+00
      2  0.000000D+00  0.655507D+00
      3  0.000000D+00  0.000000D+00  0.645532D+00
      4 -0.937703D-01  0.000000D+00  0.000000D+00  0.655508D+00
      5  0.000000D+00 -0.937702D-01  0.000000D+00  0.000000D+00  0.655507D+00
      6  0.000000D+00  0.000000D+00 -0.311445D+00  0.000000D+00  0.000000D+00
      7 -0.306456D+00  0.000000D+00  0.870877D-01  0.955315D-02  0.000000D+00
      8  0.000000D+00 -0.792036D-01  0.000000D+00  0.000000D+00  0.161540D-02
      9  0.985850D-01  0.000000D+00 -0.111362D+00  0.254589D-01  0.000000D+00
     10 -0.136017D+00  0.984035D-01 -0.435439D-01  0.359984D-02 -0.343715D-02
     11  0.984034D-01 -0.249643D+00  0.754201D-01 -0.343715D-02  0.756870D-02
     12 -0.492925D-01  0.853771D-01 -0.111362D+00 -0.127295D-01  0.220481D-01
     13 -0.136017D+00 -0.984033D-01 -0.435437D-01  0.359982D-02  0.343714D-02
     14 -0.984033D-01 -0.249643D+00 -0.754200D-01  0.343714D-02  0.756869D-02
     15 -0.492923D-01 -0.853769D-01 -0.111362D+00 -0.127295D-01 -0.220481D-01
     16  0.359982D-02  0.343714D-02  0.000000D+00 -0.136017D+00 -0.984033D-01
     17  0.343714D-02  0.756869D-02  0.000000D+00 -0.984033D-01 -0.249643D+00
     18 -0.127295D-01 -0.220481D-01  0.000000D+00 -0.492923D-01 -0.853769D-01
     19  0.955315D-02  0.000000D+00  0.000000D+00 -0.306456D+00  0.000000D+00
     20  0.000000D+00  0.161540D-02  0.000000D+00  0.000000D+00 -0.792036D-01
     21  0.254589D-01  0.000000D+00  0.000000D+00  0.985850D-01  0.000000D+00
     22  0.359984D-02 -0.343715D-02  0.000000D+00 -0.136017D+00  0.984035D-01
     23 -0.343715D-02  0.756870D-02  0.000000D+00  0.984034D-01 -0.249643D+00
     24 -0.127295D-01  0.220481D-01  0.000000D+00 -0.492925D-01  0.853771D-01
                6             7             8             9            10 
      6  0.645532D+00
      7  0.000000D+00  0.308214D+00
      8  0.000000D+00  0.000000D+00  0.600321D-01
      9  0.000000D+00 -0.939014D-01  0.000000D+00  0.932040D-01
     10  0.000000D+00 -0.565532D-02  0.267882D-01 -0.150713D-01  0.122078D+00
     11  0.000000D+00 -0.178896D-02  0.877807D-02 -0.476753D-02 -0.107466D+00
     12  0.000000D+00  0.340686D-02 -0.154359D-01  0.907921D-02  0.469507D-01
     13  0.000000D+00 -0.565530D-02 -0.267883D-01 -0.150713D-01  0.159948D-01
     14  0.000000D+00  0.178895D-02  0.877806D-02  0.476751D-02 -0.142886D-01
     15  0.000000D+00  0.340685D-02  0.154359D-01  0.907917D-02  0.116644D-01
     16 -0.435437D-01  0.000000D+00  0.140163D-02  0.000000D+00 -0.121384D-02
     17 -0.754200D-01  0.000000D+00 -0.809228D-03  0.000000D+00  0.700811D-03
     18 -0.111362D+00  0.000000D+00  0.000000D+00  0.000000D+00  0.000000D+00
     19  0.870877D-01  0.000000D+00  0.000000D+00  0.000000D+00  0.000000D+00
     20  0.000000D+00  0.000000D+00  0.161846D-02  0.000000D+00 -0.140162D-02
     21 -0.111362D+00  0.000000D+00  0.000000D+00  0.000000D+00  0.000000D+00
     22 -0.435439D-01  0.000000D+00 -0.140162D-02  0.000000D+00  0.121384D-02
     23  0.754201D-01  0.000000D+00 -0.809231D-03  0.000000D+00  0.700814D-03
     24 -0.111362D+00  0.000000D+00  0.000000D+00  0.000000D+00  0.000000D+00
               11            12            13            14            15 
     11  0.246168D+00
     12 -0.813209D-01  0.932040D-01
     13  0.142887D-01  0.116644D-01  0.122077D+00
     14 -0.128720D-01 -0.106683D-01  0.107466D+00  0.246169D+00
     15  0.106684D-01  0.907917D-02  0.469505D-01  0.813208D-01  0.932038D-01
     16 -0.700814D-03  0.000000D+00  0.121384D-02 -0.700812D-03  0.000000D+00
     17  0.404615D-03  0.000000D+00 -0.700812D-03  0.404613D-03  0.000000D+00
     18  0.000000D+00  0.000000D+00  0.000000D+00  0.000000D+00  0.000000D+00
     19  0.000000D+00  0.000000D+00  0.000000D+00  0.000000D+00  0.000000D+00
     20 -0.809231D-03  0.000000D+00  0.140163D-02 -0.809228D-03  0.000000D+00
     21  0.000000D+00  0.000000D+00  0.000000D+00  0.000000D+00  0.000000D+00
     22  0.700814D-03  0.000000D+00 -0.121384D-02  0.700811D-03  0.000000D+00
     23  0.404616D-03  0.000000D+00 -0.700814D-03  0.404615D-03  0.000000D+00
     24  0.000000D+00  0.000000D+00  0.000000D+00  0.000000D+00  0.000000D+00
               16            17            18            19            20 
     16  0.122077D+00
     17  0.107466D+00  0.246169D+00
     18  0.469505D-01  0.813208D-01  0.932038D-01
     19 -0.565530D-02  0.178895D-02  0.340685D-02  0.308214D+00
     20 -0.267883D-01  0.877806D-02  0.154359D-01  0.000000D+00  0.600321D-01
     21 -0.150713D-01  0.476751D-02  0.907917D-02 -0.939014D-01  0.000000D+00
     22  0.159948D-01 -0.142886D-01  0.116644D-01 -0.565532D-02  0.267882D-01
     23  0.142887D-01 -0.128720D-01  0.106684D-01 -0.178896D-02  0.877807D-02
     24  0.116644D-01 -0.106683D-01  0.907917D-02  0.340686D-02 -0.154359D-01
               21            22            23            24 
     21  0.932040D-01
     22 -0.150713D-01  0.122078D+00
     23 -0.476753D-02 -0.107466D+00  0.246168D+00
     24  0.907921D-02  0.469507D-01 -0.813209D-01  0.932040D-01
 Force constants in internal coordinates: 
                1             2             3             4             5 
      1  0.311445D+00
      2  0.000000D+00  0.343449D+00
      3  0.000000D+00  0.000000D+00  0.343449D+00
      4  0.000000D+00  0.000000D+00  0.000000D+00  0.343449D+00
      5  0.000000D+00  0.000000D+00  0.000000D+00  0.000000D+00  0.343449D+00
      6  0.000000D+00  0.000000D+00  0.000000D+00  0.000000D+00  0.000000D+00
      7  0.000000D+00  0.000000D+00  0.000000D+00  0.000000D+00  0.000000D+00
      8  0.000000D+00  0.000000D+00  0.000000D+00  0.000000D+00  0.000000D+00
      9  0.000000D+00  0.000000D+00  0.000000D+00  0.000000D+00  0.000000D+00
     10  0.000000D+00  0.000000D+00  0.000000D+00  0.000000D+00  0.000000D+00
     11  0.000000D+00  0.000000D+00  0.000000D+00  0.000000D+00  0.000000D+00
     12  0.000000D+00  0.000000D+00  0.000000D+00  0.000000D+00  0.000000D+00
     13  0.000000D+00  0.000000D+00  0.000000D+00  0.000000D+00  0.000000D+00
     14  0.000000D+00  0.000000D+00  0.000000D+00  0.000000D+00  0.000000D+00
     15  0.000000D+00  0.000000D+00  0.000000D+00  0.000000D+00  0.000000D+00
     16  0.000000D+00  0.000000D+00  0.000000D+00  0.000000D+00  0.000000D+00
     17  0.000000D+00  0.000000D+00  0.000000D+00  0.000000D+00  0.000000D+00
     18  0.000000D+00  0.000000D+00  0.000000D+00  0.000000D+00  0.000000D+00
                6             7             8             9            10 
      6  0.343449D+00
      7  0.000000D+00  0.343449D+00
      8  0.000000D+00  0.000000D+00  0.247795D+00
      9  0.000000D+00  0.000000D+00  0.442749D-01  0.247795D+00
     10  0.000000D+00  0.000000D+00  0.442747D-01  0.442747D-01  0.247795D+00
     11  0.000000D+00  0.000000D+00  0.000000D+00  0.000000D+00  0.000000D+00
     12  0.000000D+00  0.000000D+00  0.000000D+00  0.000000D+00  0.000000D+00
     13  0.000000D+00  0.000000D+00  0.000000D+00  0.000000D+00  0.000000D+00
     14  0.000000D+00  0.000000D+00  0.659828D-01  0.000000D+00 -0.659827D-01
     15  0.000000D+00  0.000000D+00 -0.659827D-01  0.659827D-01  0.000000D+00
     16  0.000000D+00  0.000000D+00  0.000000D+00  0.000000D+00  0.000000D+00
     17  0.000000D+00  0.000000D+00  0.000000D+00  0.000000D+00  0.000000D+00
     18  0.000000D+00  0.000000D+00  0.000000D+00  0.000000D+00  0.000000D+00
               11            12            13            14            15 
     11  0.247795D+00
     12  0.442747D-01  0.247795D+00
     13  0.442747D-01  0.442749D-01  0.247795D+00
     14  0.000000D+00  0.000000D+00  0.000000D+00  0.224943D+00
     15  0.000000D+00  0.000000D+00  0.000000D+00 -0.103375D+00  0.224943D+00
     16  0.000000D+00  0.000000D+00  0.000000D+00  0.181933D-01  0.181933D-01
     17 -0.659827D-01  0.000000D+00  0.659828D-01  0.606443D-02  0.606443D-02
     18  0.659828D-01 -0.659827D-01  0.000000D+00  0.606443D-02  0.606443D-02
               16            17            18 
     16  0.545798D-01
     17  0.181933D-01  0.224943D+00
     18  0.181932D-01 -0.103375D+00  0.224943D+00
 Leave Link  716 at Wed Feb 24 12:13:17 2021, MaxMem=  2684354560 cpu:         0.2
 (Enter /soft/gaussian/09-e.01/g09/l103.exe)

 GradGradGradGradGradGradGradGradGradGradGradGradGradGradGradGradGradGrad
 Berny optimization.
 Search for a local minimum.
 Step number   1 out of a maximum of   28
 All quantities printed in internal units (Hartrees-Bohrs-Radians)
 Second derivative matrix not updated -- first step.
 The second derivative matrix:
                          R1        R2        R3        R4        R5
           R1           0.31145
           R2          -0.00000   0.34345
           R3           0.00000  -0.00000   0.34345
           R4           0.00000  -0.00000  -0.00000   0.34345
           R5           0.00000  -0.00000   0.00000   0.00000   0.34345
           R6           0.00000   0.00000  -0.00000  -0.00000  -0.00000
           R7          -0.00000  -0.00000  -0.00000   0.00000  -0.00000
           A2          -0.00000  -0.00000  -0.00000  -0.00000   0.00000
           A3          -0.00000   0.00000   0.00000  -0.00000  -0.00000
           A4           0.00000  -0.00000  -0.00000  -0.00000   0.00000
           A5           0.00000   0.00000   0.00000  -0.00000  -0.00000
           A6          -0.00000  -0.00000   0.00000  -0.00000   0.00000
           A7          -0.00000   0.00000   0.00000   0.00000  -0.00000
           D3           0.00000  -0.00000  -0.00000   0.00000   0.00000
           D4          -0.00000  -0.00000  -0.00000  -0.00000   0.00000
           D5          -0.00000   0.00000  -0.00000   0.00000  -0.00000
           D6           0.00000   0.00000  -0.00000   0.00000  -0.00000
           D7          -0.00000  -0.00000  -0.00000   0.00000  -0.00000
                          R6        R7        A2        A3        A4
           R6           0.34345
           R7           0.00000   0.34345
           A2           0.00000   0.00000   0.24780
           A3          -0.00000  -0.00000   0.04427   0.24780
           A4           0.00000   0.00000   0.04427   0.04427   0.24779
           A5          -0.00000   0.00000  -0.00000   0.00000  -0.00000
           A6           0.00000   0.00000  -0.00000   0.00000  -0.00000
           A7           0.00000  -0.00000   0.00000  -0.00000   0.00000
           D3           0.00000   0.00000   0.06598   0.00000  -0.06598
           D4           0.00000   0.00000  -0.06598   0.06598  -0.00000
           D5          -0.00000  -0.00000   0.00000  -0.00000   0.00000
           D6          -0.00000   0.00000   0.00000  -0.00000   0.00000
           D7          -0.00000  -0.00000   0.00000  -0.00000   0.00000
                          A5        A6        A7        D3        D4
           A5           0.24779
           A6           0.04427   0.24780
           A7           0.04427   0.04427   0.24780
           D3          -0.00000  -0.00000   0.00000   0.22494
           D4          -0.00000  -0.00000   0.00000  -0.10337   0.22494
           D5           0.00000   0.00000   0.00000   0.01819   0.01819
           D6          -0.06598   0.00000   0.06598   0.00606   0.00606
           D7           0.06598  -0.06598  -0.00000   0.00606   0.00606
                          D5        D6        D7
           D5           0.05458
           D6           0.01819   0.22494
           D7           0.01819  -0.10337   0.22494
 ITU=  0
     Eigenvalues ---    0.03609   0.07545   0.11054   0.13571   0.13571
     Eigenvalues ---    0.23751   0.24517   0.31145   0.33634   0.33634
     Eigenvalues ---    0.34345   0.34345   0.34345   0.34345   0.34345
     Eigenvalues ---    0.34345   0.39613   0.39613
 RFO step:  Lambda=-7.93283331D-04 EMin= 3.60895512D-02
 Linear search not attempted -- first point.
 Variable       Old X    -DE/DX   Delta X   Delta X   Delta X     New X
                                 (Linear)    (Quad)   (Total)
    R1        2.85738   0.01140   0.00000   0.03650   0.03650   2.89388
    R2        2.06752   0.00060   0.00000   0.00175   0.00175   2.06927
    R3        2.06752   0.00060   0.00000   0.00175   0.00175   2.06927
    R4        2.06752   0.00060   0.00000   0.00175   0.00175   2.06927
    R5        2.06752   0.00060   0.00000   0.00175   0.00175   2.06927
    R6        2.06752   0.00060   0.00000   0.00175   0.00175   2.06927
    R7        2.06752   0.00060   0.00000   0.00175   0.00175   2.06927
    A2        1.92978   0.00456   0.00000   0.01352   0.01352   1.94330
    A3        1.92978   0.00457   0.00000   0.01355   0.01355   1.94332
    A4        1.92977   0.00457   0.00000   0.01355   0.01355   1.94332
    A5        1.92977   0.00457   0.00000   0.01355   0.01355   1.94332
    A6        1.92978   0.00456   0.00000   0.01352   0.01352   1.94330
    A7        1.92978   0.00457   0.00000   0.01355   0.01355   1.94332
    D3        4.18879   0.00000   0.00000   0.00001   0.00001   4.18880
    D4        2.09439  -0.00000   0.00000  -0.00001  -0.00001   2.09439
    D5        1.04720   0.00000   0.00000   0.00001   0.00001   1.04721
    D6        2.09439   0.00000   0.00000  -0.00001  -0.00001   2.09439
    D7        4.18879  -0.00000   0.00000  -0.00002  -0.00002   4.18877
         Item               Value     Threshold  Converged?
 Maximum Force            0.011397     0.000450     NO 
 RMS     Force            0.003780     0.000300     NO 
 Maximum Displacement     0.036501     0.001800     NO 
 RMS     Displacement     0.011669     0.001200     NO 
 Predicted change in Energy=-3.976162D-04
 Lowest energy point so far.  Saving SCF results.
 GradGradGradGradGradGradGradGradGradGradGradGradGradGradGradGradGradGrad

 Leave Link  103 at Wed Feb 24 12:13:17 2021, MaxMem=  2684354560 cpu:         0.1
 (Enter /soft/gaussian/09-e.01/g09/l202.exe)
 ---------------------------------------------------------------------------------------------------
                            Z-MATRIX (ANGSTROMS AND DEGREES)
   CD    Cent   Atom    N1       Length/X        N2       Alpha/Y        N3        Beta/Z          J
 ---------------------------------------------------------------------------------------------------
      1      1  C 
      2      2  C        1   1.531374(     1)
      3      3  H        1   1.095011(     2)      2  111.343(     8)
      4      4  H        1   1.095013(     3)      2  111.344(     9)      3  240.001(    14)      0
      5      5  H        1   1.095013(     4)      2  111.344(    10)      3  119.999(    15)      0
      6      6  H        2   1.095013(     5)      1  111.344(    11)      3   60.001(    16)      0
      7      7  H        2   1.095011(     6)      1  111.343(    12)      6  119.999(    17)      0
      8      8  H        2   1.095013(     7)      1  111.344(    13)      6  239.999(    18)      0
 ---------------------------------------------------------------------------------------------------
                         Z-Matrix orientation:                         
 ---------------------------------------------------------------------
 Center     Atomic      Atomic             Coordinates (Angstroms)
 Number     Number       Type             X           Y           Z
 ---------------------------------------------------------------------
      1          6           0        0.000000    0.000000    0.000000
      2          6           0        0.000000    0.000000    1.531374
      3          1           0        1.019914    0.000000   -0.398528
      4          1           0       -0.509945    0.883269   -0.398553
      5          1           0       -0.509945   -0.883269   -0.398553
      6          1           0        0.509944    0.883269    1.929927
      7          1           0       -1.019914   -0.000001    1.929901
      8          1           0        0.509945   -0.883269    1.929927
 ---------------------------------------------------------------------
                    Distance matrix (angstroms):
                    1          2          3          4          5
     1  C    0.000000
     2  C    1.531374   0.000000
     3  H    1.095011   2.182829   0.000000
     4  H    1.095013   2.182848   1.766531   0.000000
     5  H    1.095013   2.182848   1.766531   1.766538   0.000000
     6  H    2.182848   1.095013   2.542034   2.542045   3.095586
     7  H    2.182829   1.095011   3.095558   2.542033   2.542033
     8  H    2.182848   1.095013   2.542033   3.095586   2.542045
                    6          7          8
     6  H    0.000000
     7  H    1.766531   0.000000
     8  H    1.766538   1.766531   0.000000
 Stoichiometry    C2H6
 Framework group  C1[X(C2H6)]
 Deg. of freedom    18
 Full point group                 C1      NOp   1
 Omega: Change in point group or standard orientation.

 Old FWG=CI   [X(C2H6)]
 New FWG=C01  [X(C2H6)]
 RotChk:  IX=0 Diff= 2.00D+00
 Largest Abelian subgroup         C1      NOp   1
 Largest concise Abelian subgroup C1      NOp   1
                         Standard orientation:                         
 ---------------------------------------------------------------------
 Center     Atomic      Atomic             Coordinates (Angstroms)
 Number     Number       Type             X           Y           Z
 ---------------------------------------------------------------------
      1          6           0       -0.765687    0.000000    0.000000
      2          6           0        0.765687    0.000000   -0.000000
      3          1           0       -1.164215    0.016672   -1.019777
      4          1           0       -1.164240    0.874815    0.524315
      5          1           0       -1.164240   -0.891487    0.495439
      6          1           0        1.164240    0.891487   -0.495438
      7          1           0        1.164215   -0.016673    1.019777
      8          1           0        1.164240   -0.874815   -0.524315
 ---------------------------------------------------------------------
 Rotational constants (GHZ):     80.3449098     19.8874768     19.8874495
 Leave Link  202 at Wed Feb 24 12:13:17 2021, MaxMem=  2684354560 cpu:         0.1
 (Enter /soft/gaussian/09-e.01/g09/l301.exe)
 Standard basis: 6-31G(d) (6D, 7F)
 Ernie: Thresh=  0.10000D-02 Tol=  0.10000D-05 Strict=F.
 There are    42 symmetry adapted cartesian basis functions of A   symmetry.
 There are    42 symmetry adapted basis functions of A   symmetry.
    42 basis functions,    80 primitive gaussians,    42 cartesian basis functions
     9 alpha electrons        9 beta electrons
       nuclear repulsion energy        42.1240085156 Hartrees.
 IExCor= 4639 DFT=T Ex+Corr=wB97XD ExCW=0 ScaHFX=  1.000000
 ScaDFX=  1.000000  1.000000  1.000000  1.000000 ScalE2=  1.000000  1.000000
 IRadAn=      5 IRanWt=     -1 IRanGd=            0 ICorTp=0 IEmpDi=121
  HFx wShort=  0.000000 wLong=  0.200000 cFull=  0.222036 cShort=  0.000000 cLong=  0.777964
  DFx wShort=  0.000000 wLong=  0.200000 cFull=  0.000000 cShort=  0.000000 cLong=  1.000000
 NAtoms=    8 NActive=    8 NUniq=    8 SFac= 1.00D+00 NAtFMM=   60 NAOKFM=F Big=F
 Integral buffers will be    131072 words long.
 Raffenetti 2 integral format.
 Two-electron integral symmetry is turned on.
 R6Disp:  Grimme-D2 Dispersion energy=       -0.0018603830 Hartrees.
 Nuclear repulsion after empirical dispersion term =       42.1221481326 Hartrees.
 Leave Link  301 at Wed Feb 24 12:13:17 2021, MaxMem=  2684354560 cpu:         0.4
 (Enter /soft/gaussian/09-e.01/g09/l302.exe)
 NPDir=0 NMtPBC=     1 NCelOv=     1 NCel=       1 NClECP=     1 NCelD=      1
         NCelK=      1 NCelE2=     1 NClLst=     1 CellRange=     0.0.
 One-electron integrals computed using PRISM.
 NBasis=    42 RedAO= T EigKep=  8.49D-03  NBF=    42
 NBsUse=    42 1.00D-06 EigRej= -1.00D+00 NBFU=    42
 Precomputing XC quadrature grid using
 IXCGrd= 4 IRadAn=           5 IRanWt=          -1 IRanGd=           0 AccXCQ= 0.00D+00.
 Generated NRdTot=       0 NPtTot=           0 NUsed=           0 NTot=          32
 NSgBfM=    42    42    42    42    42 MxSgAt=     8 MxSgA2=     8.
 Leave Link  302 at Wed Feb 24 12:13:18 2021, MaxMem=  2684354560 cpu:         1.4
 (Enter /soft/gaussian/09-e.01/g09/l303.exe)
 DipDrv:  MaxL=1.
 Leave Link  303 at Wed Feb 24 12:13:18 2021, MaxMem=  2684354560 cpu:         0.2
 (Enter /soft/gaussian/09-e.01/g09/l401.exe)
 Initial guess from the checkpoint file:  "/scratch/kmoore/Gau-31974.chk"
 B after Tr=    -0.000000   -0.000000    0.000000
         Rot=    0.707085   -0.005779   -0.707081   -0.005779 Ang= -90.00 deg.
 Guess basis will be translated and rotated to current coordinates.
 JPrj=2 DoOrth=T DoCkMO=T.
 Generating alternative initial guess.
 ExpMin= 1.61D-01 ExpMax= 3.05D+03 ExpMxC= 4.57D+02 IAcc=2 IRadAn=         4 AccDes= 0.00D+00
 Harris functional with IExCor= 4639 and IRadAn=       4 diagonalized for initial guess.
 HarFok:  IExCor= 4639 AccDes= 0.00D+00 IRadAn=         4 IDoV= 1 UseB2=F ITyADJ=14
 ICtDFT=  3500011 ScaDFX=  1.000000  1.000000  1.000000  1.000000
 FoFCou: FMM=F IPFlag=           0 FMFlag=      100000 FMFlg1=           0
         NFxFlg=           0 DoJE=T BraDBF=F KetDBF=T FulRan=T
         wScrn=  0.000000 ICntrl=     500 IOpCl=  0 I1Cent=   200000004 NGrid=           0
         NMat0=    1 NMatS0=      1 NMatT0=    0 NMatD0=    1 NMtDS0=    0 NMtDT0=    0
 Petite list used in FoFCou.
 Harris En= -75.5974122350796    
 Leave Link  401 at Wed Feb 24 12:13:18 2021, MaxMem=  2684354560 cpu:         2.0
 (Enter /soft/gaussian/09-e.01/g09/l502.exe)
 Closed shell SCF:
 Using DIIS extrapolation, IDIIS=  1040.
 Integral symmetry usage will be decided dynamically.
 Keep R1 ints in memory in canonical form, NReq=1691638.
 IVT=       11984 IEndB=       11984 NGot=  2684354560 MDV=  2683526265
 LenX=  2683526265 LenY=  2683524060
 Requested convergence on RMS density matrix=1.00D-08 within  64 cycles.
 Requested convergence on MAX density matrix=1.00D-06.
 Requested convergence on             energy=1.00D-06.
 No special actions if energy rises.
 FoFCou: FMM=F IPFlag=           0 FMFlag=           0 FMFlg1=           0
         NFxFlg=           0 DoJE=F BraDBF=F KetDBF=F FulRan=T
         wScrn=  0.000000 ICntrl=     600 IOpCl=  0 I1Cent=           0 NGrid=           0
         NMat0=    1 NMatS0=    903 NMatT0=    0 NMatD0=    1 NMtDS0=    0 NMtDT0=    0
 Symmetry not used in FoFCou.
 Integral accuracy reduced to 1.0D-05 until final iterations.

 Cycle   1  Pass 0  IDiag  1:
 E= -79.8019055493983    
 DIIS: error= 2.07D-03 at cycle   1 NSaved=   1.
 NSaved= 1 IEnMin= 1 EnMin= -79.8019055493983     IErMin= 1 ErrMin= 2.07D-03
 ErrMax= 2.07D-03  0.00D+00 EMaxC= 1.00D-01 BMatC= 8.37D-05 BMatP= 8.37D-05
 IDIUse=3 WtCom= 9.79D-01 WtEn= 2.07D-02
 Coeff-Com:  0.100D+01
 Coeff-En:   0.100D+01
 Coeff:      0.100D+01
 Gap=     2.282 Goal=   None    Shift=    0.000
 GapD=    2.282 DampG=2.000 DampE=1.000 DampFc=2.0000 IDamp=-1.
 RMSDP=2.28D-04 MaxDP=1.40D-03              OVMax= 3.55D-03

 Cycle   2  Pass 0  IDiag  1:
 E= -79.8019968622900     Delta-E=       -0.000091312892 Rises=F Damp=F
 DIIS: error= 5.02D-04 at cycle   2 NSaved=   2.
 NSaved= 2 IEnMin= 2 EnMin= -79.8019968622900     IErMin= 2 ErrMin= 5.02D-04
 ErrMax= 5.02D-04  0.00D+00 EMaxC= 1.00D-01 BMatC= 7.59D-06 BMatP= 8.37D-05
 IDIUse=3 WtCom= 9.95D-01 WtEn= 5.02D-03
 Coeff-Com:  0.138D+00 0.862D+00
 Coeff-En:   0.000D+00 0.100D+01
 Coeff:      0.137D+00 0.863D+00
 Gap=     0.611 Goal=   None    Shift=    0.000
 RMSDP=6.91D-05 MaxDP=6.14D-04 DE=-9.13D-05 OVMax= 9.63D-04

 Cycle   3  Pass 0  IDiag  1:
 E= -79.8020032938857     Delta-E=       -0.000006431596 Rises=F Damp=F
 DIIS: error= 2.38D-04 at cycle   3 NSaved=   3.
 NSaved= 3 IEnMin= 3 EnMin= -79.8020032938857     IErMin= 3 ErrMin= 2.38D-04
 ErrMax= 2.38D-04  0.00D+00 EMaxC= 1.00D-01 BMatC= 1.56D-06 BMatP= 7.59D-06
 IDIUse=3 WtCom= 9.98D-01 WtEn= 2.38D-03
 Coeff-Com: -0.261D-01 0.270D+00 0.756D+00
 Coeff-En:   0.000D+00 0.000D+00 0.100D+01
 Coeff:     -0.260D-01 0.269D+00 0.757D+00
 Gap=     0.611 Goal=   None    Shift=    0.000
 RMSDP=2.58D-05 MaxDP=2.64D-04 DE=-6.43D-06 OVMax= 4.06D-04

 Cycle   4  Pass 0  IDiag  1:
 E= -79.8020048446564     Delta-E=       -0.000001550771 Rises=F Damp=F
 DIIS: error= 4.24D-05 at cycle   4 NSaved=   4.
 NSaved= 4 IEnMin= 4 EnMin= -79.8020048446564     IErMin= 4 ErrMin= 4.24D-05
 ErrMax= 4.24D-05  0.00D+00 EMaxC= 1.00D-01 BMatC= 4.26D-08 BMatP= 1.56D-06
 IDIUse=1 WtCom= 1.00D+00 WtEn= 0.00D+00
 Coeff-Com: -0.129D-01-0.165D-02 0.155D+00 0.860D+00
 Coeff:     -0.129D-01-0.165D-02 0.155D+00 0.860D+00
 Gap=     0.611 Goal=   None    Shift=    0.000
 RMSDP=6.04D-06 MaxDP=3.59D-05 DE=-1.55D-06 OVMax= 7.06D-05

 Initial convergence to 1.0D-05 achieved.  Increase integral accuracy.
 Cycle   5  Pass 1  IDiag  1:
 E= -79.8020063694920     Delta-E=       -0.000001524836 Rises=F Damp=F
 DIIS: error= 2.40D-05 at cycle   1 NSaved=   1.
 NSaved= 1 IEnMin= 1 EnMin= -79.8020063694920     IErMin= 1 ErrMin= 2.40D-05
 ErrMax= 2.40D-05  0.00D+00 EMaxC= 1.00D-01 BMatC= 1.36D-08 BMatP= 1.36D-08
 IDIUse=1 WtCom= 1.00D+00 WtEn= 0.00D+00
 Coeff-Com:  0.100D+01
 Coeff:      0.100D+01
 Gap=     0.611 Goal=   None    Shift=    0.000
 RMSDP=6.04D-06 MaxDP=3.59D-05 DE=-1.52D-06 OVMax= 3.35D-05

 Cycle   6  Pass 1  IDiag  1:
 E= -79.8020063832444     Delta-E=       -0.000000013752 Rises=F Damp=F
 DIIS: error= 3.39D-06 at cycle   2 NSaved=   2.
 NSaved= 2 IEnMin= 2 EnMin= -79.8020063832444     IErMin= 2 ErrMin= 3.39D-06
 ErrMax= 3.39D-06  0.00D+00 EMaxC= 1.00D-01 BMatC= 3.28D-10 BMatP= 1.36D-08
 IDIUse=1 WtCom= 1.00D+00 WtEn= 0.00D+00
 Coeff-Com: -0.458D-01 0.105D+01
 Coeff:     -0.458D-01 0.105D+01
 Gap=     0.611 Goal=   None    Shift=    0.000
 RMSDP=5.60D-07 MaxDP=5.42D-06 DE=-1.38D-08 OVMax= 8.85D-06

 Cycle   7  Pass 1  IDiag  1:
 E= -79.8020063835761     Delta-E=       -0.000000000332 Rises=F Damp=F
 DIIS: error= 1.74D-06 at cycle   3 NSaved=   3.
 NSaved= 3 IEnMin= 3 EnMin= -79.8020063835761     IErMin= 3 ErrMin= 1.74D-06
 ErrMax= 1.74D-06  0.00D+00 EMaxC= 1.00D-01 BMatC= 9.41D-11 BMatP= 3.28D-10
 IDIUse=1 WtCom= 1.00D+00 WtEn= 0.00D+00
 Coeff-Com: -0.394D-01 0.350D+00 0.689D+00
 Coeff:     -0.394D-01 0.350D+00 0.689D+00
 Gap=     0.611 Goal=   None    Shift=    0.000
 RMSDP=2.16D-07 MaxDP=1.96D-06 DE=-3.32D-10 OVMax= 3.05D-06

 Cycle   8  Pass 1  IDiag  1:
 E= -79.8020063836677     Delta-E=       -0.000000000092 Rises=F Damp=F
 DIIS: error= 3.41D-07 at cycle   4 NSaved=   4.
 NSaved= 4 IEnMin= 4 EnMin= -79.8020063836677     IErMin= 4 ErrMin= 3.41D-07
 ErrMax= 3.41D-07  0.00D+00 EMaxC= 1.00D-01 BMatC= 3.29D-12 BMatP= 9.41D-11
 IDIUse=1 WtCom= 1.00D+00 WtEn= 0.00D+00
 Coeff-Com: -0.468D-02 0.555D-02 0.151D+00 0.848D+00
 Coeff:     -0.468D-02 0.555D-02 0.151D+00 0.848D+00
 Gap=     0.611 Goal=   None    Shift=    0.000
 RMSDP=4.84D-08 MaxDP=4.06D-07 DE=-9.16D-11 OVMax= 7.59D-07

 Cycle   9  Pass 1  IDiag  1:
 E= -79.8020063836717     Delta-E=       -0.000000000004 Rises=F Damp=F
 DIIS: error= 6.69D-08 at cycle   5 NSaved=   5.
 NSaved= 5 IEnMin= 5 EnMin= -79.8020063836717     IErMin= 5 ErrMin= 6.69D-08
 ErrMax= 6.69D-08  0.00D+00 EMaxC= 1.00D-01 BMatC= 5.98D-14 BMatP= 3.29D-12
 IDIUse=1 WtCom= 1.00D+00 WtEn= 0.00D+00
 Coeff-Com:  0.179D-02-0.162D-01-0.348D-01-0.226D-01 0.107D+01
 Coeff:      0.179D-02-0.162D-01-0.348D-01-0.226D-01 0.107D+01
 Gap=     0.611 Goal=   None    Shift=    0.000
 RMSDP=1.70D-08 MaxDP=1.14D-07 DE=-4.05D-12 OVMax= 1.79D-07

 Cycle  10  Pass 1  IDiag  1:
 E= -79.8020063836719     Delta-E=       -0.000000000000 Rises=F Damp=F
 DIIS: error= 5.02D-09 at cycle   6 NSaved=   6.
 NSaved= 6 IEnMin= 6 EnMin= -79.8020063836719     IErMin= 6 ErrMin= 5.02D-09
 ErrMax= 5.02D-09  0.00D+00 EMaxC= 1.00D-01 BMatC= 6.64D-16 BMatP= 5.98D-14
 IDIUse=1 WtCom= 1.00D+00 WtEn= 0.00D+00
 Coeff-Com: -0.366D-04 0.914D-03-0.162D-03-0.979D-02-0.870D-01 0.110D+01
 Coeff:     -0.366D-04 0.914D-03-0.162D-03-0.979D-02-0.870D-01 0.110D+01
 Gap=     0.611 Goal=   None    Shift=    0.000
 RMSDP=2.81D-09 MaxDP=1.56D-08 DE=-1.42D-13 OVMax= 2.86D-08

 SCF Done:  E(RwB97XD) =  -79.8020063837     A.U. after   10 cycles
            NFock= 10  Conv=0.28D-08     -V/T= 2.0106
 KE= 7.896655538533D+01 PE=-2.680545106124D+02 EE= 6.716380071082D+01
 Leave Link  502 at Wed Feb 24 12:13:19 2021, MaxMem=  2684354560 cpu:        10.2
 (Enter /soft/gaussian/09-e.01/g09/l508.exe)
 QCSCF skips out because SCF is already converged.
 Leave Link  508 at Wed Feb 24 12:13:19 2021, MaxMem=  2684354560 cpu:         0.0
 (Enter /soft/gaussian/09-e.01/g09/l701.exe)
 Compute integral first derivatives.
 ... and contract with generalized density number  0.
 R6Disp: Adding Grimme-D2 dispersion energy 1st derivatives to the gradient.
 Leave Link  701 at Wed Feb 24 12:13:19 2021, MaxMem=  2684354560 cpu:         1.4
 (Enter /soft/gaussian/09-e.01/g09/l702.exe)
 L702 exits ... SP integral derivatives will be done elsewhere.
 Leave Link  702 at Wed Feb 24 12:13:19 2021, MaxMem=  2684354560 cpu:         0.1
 (Enter /soft/gaussian/09-e.01/g09/l703.exe)
 Compute integral first derivatives, UseDBF=F ICtDFT=           0.
 Integral derivatives from FoFJK, PRISM(SPDF).
 Calling FoFJK, ICntrl=      2127 FMM=F ISym2X=0 I1Cent= 0 IOpClX= 0 NMat=1 NMatS=1 NMatT=0.
 FoFJK:  IHMeth= 1 ICntrl=    2127 DoSepK=T KAlg= 0 I1Cent=   0 FoldK=F
 IRaf=         1 NMat=   1 IRICut=       1 DoRegI=T DoRafI=F ISym2E= 0.
 FoFCou: FMM=F IPFlag=           0 FMFlag=      100000 FMFlg1=         800
         NFxFlg=           0 DoJE=F BraDBF=F KetDBF=F FulRan=T
         wScrn=  0.000000 ICntrl=    2527 IOpCl=  0 I1Cent=           0 NGrid=           0
         NMat0=    1 NMatS0=      1 NMatT0=    0 NMatD0=    1 NMtDS0=    0 NMtDT0=    0
 Symmetry not used in FoFCou.
 Leave Link  703 at Wed Feb 24 12:13:20 2021, MaxMem=  2684354560 cpu:         4.4
 (Enter /soft/gaussian/09-e.01/g09/l716.exe)
 Dipole        = 1.11148115D-08-9.53591589D-08 5.68061854D-08
 ***** Axes restored to original set *****
 -------------------------------------------------------------------
 Center     Atomic                   Forces (Hartrees/Bohr)
 Number     Number              X              Y              Z
 -------------------------------------------------------------------
      1        6           0.000002722   -0.000001640    0.001643393
      2        6          -0.000002746    0.000001567   -0.001643356
      3        1           0.000172823    0.000001320    0.000365413
      4        1          -0.000086968    0.000150419    0.000366260
      5        1          -0.000085588   -0.000149893    0.000366817
      6        1           0.000085571    0.000149888   -0.000366817
      7        1          -0.000172835   -0.000001249   -0.000365416
      8        1           0.000087021   -0.000150413   -0.000366295
 -------------------------------------------------------------------
 Cartesian Forces:  Max     0.001643393 RMS     0.000515815
 -----------------------------------------------------------------------------------------------
                       Internal Coordinate Forces (Hartree/Bohr or radian)
  Cent   Atom   N1       Length/X         N2         Alpha/Y        N3         Beta/Z          J
 -----------------------------------------------------------------------------------------------
      1  C 
      2  C        1  -0.002742(     1)
      3  H        1   0.000028(     2)      2  -0.000834(     8)
      4  H        1   0.000029(     3)      2  -0.000837(     9)      3  -0.000000(    14)     0
      5  H        1   0.000027(     4)      2  -0.000837(    10)      3  -0.000002(    15)     0
      6  H        2   0.000027(     5)      1  -0.000837(    11)      3   0.000004(    16)     0
      7  H        2   0.000028(     6)      1  -0.000834(    12)      6   0.000002(    17)     0
      8  H        2   0.000029(     7)      1  -0.000837(    13)      6   0.000000(    18)     0
 -----------------------------------------------------------------------------------------------
 Internal  Forces:  Max     0.002741883 RMS     0.000806804
 Leave Link  716 at Wed Feb 24 12:13:20 2021, MaxMem=  2684354560 cpu:         0.2
 (Enter /soft/gaussian/09-e.01/g09/l103.exe)

 GradGradGradGradGradGradGradGradGradGradGradGradGradGradGradGradGradGrad
 Berny optimization.
 Search for a local minimum.
 Step number   2 out of a maximum of   28
 All quantities printed in internal units (Hartrees-Bohrs-Radians)
 Update second derivatives using D2CorN and points    1    2
 DE= -3.08D-04 DEPred=-3.98D-04 R= 7.75D-01
 TightC=F SS=  1.41D+00  RLast= 4.95D-02 DXNew= 5.0454D-01 1.4852D-01
 Trust test= 7.75D-01 RLast= 4.95D-02 DXMaxT set to 3.00D-01
 The second derivative matrix:
                          R1        R2        R3        R4        R5
           R1           0.35271
           R2           0.00079   0.34343
           R3           0.00079  -0.00002   0.34343
           R4           0.00080  -0.00002  -0.00002   0.34343
           R5           0.00080  -0.00002  -0.00002  -0.00002   0.34343
           R6           0.00079  -0.00002  -0.00002  -0.00002  -0.00002
           R7           0.00079  -0.00002  -0.00002  -0.00002  -0.00002
           A2           0.01394   0.00023   0.00023   0.00023   0.00023
           A3           0.01397   0.00023   0.00023   0.00023   0.00023
           A4           0.01397   0.00023   0.00023   0.00023   0.00023
           A5           0.01397   0.00023   0.00023   0.00023   0.00023
           A6           0.01394   0.00023   0.00023   0.00023   0.00023
           A7           0.01397   0.00023   0.00023   0.00023   0.00023
           D3           0.00001   0.00000   0.00000   0.00000   0.00000
           D4           0.00001   0.00000   0.00000   0.00000   0.00000
           D5          -0.00003  -0.00000  -0.00000  -0.00000  -0.00000
           D6          -0.00002  -0.00000  -0.00000  -0.00000  -0.00000
           D7          -0.00001  -0.00000  -0.00000  -0.00000  -0.00000
                          R6        R7        A2        A3        A4
           R6           0.34343
           R7          -0.00002   0.34343
           A2           0.00023   0.00023   0.25246
           A3           0.00023   0.00023   0.04895   0.25248
           A4           0.00023   0.00023   0.04895   0.04896   0.25248
           A5           0.00023   0.00023   0.00468   0.00469   0.00469
           A6           0.00023   0.00023   0.00466   0.00467   0.00468
           A7           0.00023   0.00023   0.00467   0.00469   0.00469
           D3           0.00000   0.00000   0.06599   0.00000  -0.06598
           D4           0.00000   0.00000  -0.06598   0.06599   0.00000
           D5          -0.00000  -0.00000  -0.00001  -0.00001  -0.00001
           D6          -0.00000  -0.00000  -0.00001  -0.00001  -0.00001
           D7          -0.00000  -0.00000  -0.00000  -0.00000  -0.00000
                          A5        A6        A7        D3        D4
           A5           0.25248
           A6           0.04895   0.25246
           A7           0.04896   0.04895   0.25248
           D3           0.00000   0.00000   0.00000   0.22494
           D4           0.00000   0.00000   0.00000  -0.10337   0.22494
           D5          -0.00001  -0.00001  -0.00001   0.01819   0.01819
           D6          -0.06599  -0.00001   0.06597   0.00606   0.00606
           D7           0.06598  -0.06599  -0.00000   0.00606   0.00606
                          D5        D6        D7
           D5           0.05458
           D6           0.01819   0.22494
           D7           0.01819  -0.10337   0.22494
 ITU=  1  0
     Eigenvalues ---    0.03609   0.07545   0.11054   0.13571   0.13571
     Eigenvalues ---    0.23751   0.24517   0.32385   0.33634   0.34325
     Eigenvalues ---    0.34345   0.34345   0.34345   0.34345   0.34345
     Eigenvalues ---    0.39336   0.39613   0.39613
 RFO step:  Lambda=-7.32703081D-07 EMin= 3.60895285D-02
 Quartic linear search produced a step of -0.17880.
 Variable       Old X    -DE/DX   Delta X   Delta X   Delta X     New X
                                 (Linear)    (Quad)   (Total)
    R1        2.89388  -0.00274  -0.00653  -0.00086  -0.00739   2.88649
    R2        2.06927   0.00003  -0.00031   0.00037   0.00006   2.06933
    R3        2.06927   0.00003  -0.00031   0.00037   0.00006   2.06933
    R4        2.06927   0.00003  -0.00031   0.00037   0.00006   2.06933
    R5        2.06927   0.00003  -0.00031   0.00037   0.00006   2.06933
    R6        2.06927   0.00003  -0.00031   0.00037   0.00006   2.06933
    R7        2.06927   0.00003  -0.00031   0.00037   0.00006   2.06934
    A2        1.94330  -0.00083  -0.00242   0.00033  -0.00209   1.94121
    A3        1.94332  -0.00084  -0.00242   0.00033  -0.00209   1.94123
    A4        1.94332  -0.00084  -0.00242   0.00032  -0.00211   1.94122
    A5        1.94332  -0.00084  -0.00242   0.00032  -0.00210   1.94123
    A6        1.94330  -0.00083  -0.00242   0.00033  -0.00209   1.94121
    A7        1.94332  -0.00084  -0.00242   0.00032  -0.00210   1.94122
    D3        4.18880  -0.00000  -0.00000  -0.00002  -0.00002   4.18878
    D4        2.09439  -0.00000   0.00000  -0.00002  -0.00002   2.09436
    D5        1.04721   0.00000  -0.00000   0.00008   0.00008   1.04728
    D6        2.09439   0.00000   0.00000   0.00000   0.00001   2.09439
    D7        4.18877   0.00000   0.00000  -0.00000   0.00000   4.18877
         Item               Value     Threshold  Converged?
 Maximum Force            0.002742     0.000450     NO 
 RMS     Force            0.000807     0.000300     NO 
 Maximum Displacement     0.007389     0.001800     NO 
 RMS     Displacement     0.002121     0.001200     NO 
 Predicted change in Energy=-1.505541D-05
 Lowest energy point so far.  Saving SCF results.
 GradGradGradGradGradGradGradGradGradGradGradGradGradGradGradGradGradGrad

 Leave Link  103 at Wed Feb 24 12:13:20 2021, MaxMem=  2684354560 cpu:         0.1
 (Enter /soft/gaussian/09-e.01/g09/l202.exe)
 ---------------------------------------------------------------------------------------------------
                            Z-MATRIX (ANGSTROMS AND DEGREES)
   CD    Cent   Atom    N1       Length/X        N2       Alpha/Y        N3        Beta/Z          J
 ---------------------------------------------------------------------------------------------------
      1      1  C 
      2      2  C        1   1.527464(     1)
      3      3  H        1   1.095043(     2)      2  111.223(     8)
      4      4  H        1   1.095045(     3)      2  111.224(     9)      3  239.999(    14)      0
      5      5  H        1   1.095043(     4)      2  111.224(    10)      3  119.998(    15)      0
      6      6  H        2   1.095043(     5)      1  111.224(    11)      3   60.005(    16)      0
      7      7  H        2   1.095043(     6)      1  111.223(    12)      6  120.000(    17)      0
      8      8  H        2   1.095045(     7)      1  111.224(    13)      6  239.999(    18)      0
 ---------------------------------------------------------------------------------------------------
                         Z-Matrix orientation:                         
 ---------------------------------------------------------------------
 Center     Atomic      Atomic             Coordinates (Angstroms)
 Number     Number       Type             X           Y           Z
 ---------------------------------------------------------------------
      1          6           0        0.000000    0.000000    0.000000
      2          6           0        0.000000    0.000000    1.527464
      3          1           0        1.020774    0.000000   -0.396407
      4          1           0       -0.510395    0.884004   -0.396430
      5          1           0       -0.510359   -0.884030   -0.396415
      6          1           0        0.510307    0.884056    1.923887
      7          1           0       -1.020774   -0.000085    1.923871
      8          1           0        0.510447   -0.883978    1.923885
 ---------------------------------------------------------------------
                    Distance matrix (angstroms):
                    1          2          3          4          5
     1  C    0.000000
     2  C    1.527464   0.000000
     3  H    1.095043   2.177903   0.000000
     4  H    1.095045   2.177920   1.768033   0.000000
     5  H    1.095043   2.177908   1.768015   1.768034   0.000000
     6  H    2.177914   1.095043   2.534936   2.534898   3.090581
     7  H    2.177903   1.095043   3.090568   2.534936   2.534879
     8  H    2.177914   1.095045   2.534879   3.090590   2.534923
                    6          7          8
     6  H    0.000000
     7  H    1.768026   0.000000
     8  H    1.768034   1.768023   0.000000
 Stoichiometry    C2H6
 Framework group  C1[X(C2H6)]
 Deg. of freedom    18
 Full point group                 C1      NOp   1
 RotChk:  IX=0 Diff= 4.39D-01
 Largest Abelian subgroup         C1      NOp   1
 Largest concise Abelian subgroup C1      NOp   1
                         Standard orientation:                         
 ---------------------------------------------------------------------
 Center     Atomic      Atomic             Coordinates (Angstroms)
 Number     Number       Type             X           Y           Z
 ---------------------------------------------------------------------
      1          6           0       -0.763732    0.000003    0.000000
      2          6           0        0.763732    0.000001   -0.000001
      3          1           0       -1.160141   -0.297307   -0.976517
      4          1           0       -1.160161    0.994338    0.230793
      5          1           0       -1.160147   -0.697052    0.745714
      6          1           0        1.160156    0.697095   -0.745674
      7          1           0        1.160141    0.297229    0.976540
      8          1           0        1.160152   -0.994325   -0.230851
 ---------------------------------------------------------------------
 Rotational constants (GHZ):     80.2091786     19.9848559     19.9848101
 Leave Link  202 at Wed Feb 24 12:13:20 2021, MaxMem=  2684354560 cpu:         0.1
 (Enter /soft/gaussian/09-e.01/g09/l301.exe)
 Standard basis: 6-31G(d) (6D, 7F)
 Ernie: Thresh=  0.10000D-02 Tol=  0.10000D-05 Strict=F.
 There are    42 symmetry adapted cartesian basis functions of A   symmetry.
 There are    42 symmetry adapted basis functions of A   symmetry.
    42 basis functions,    80 primitive gaussians,    42 cartesian basis functions
     9 alpha electrons        9 beta electrons
       nuclear repulsion energy        42.1779341254 Hartrees.
 IExCor= 4639 DFT=T Ex+Corr=wB97XD ExCW=0 ScaHFX=  1.000000
 ScaDFX=  1.000000  1.000000  1.000000  1.000000 ScalE2=  1.000000  1.000000
 IRadAn=      5 IRanWt=     -1 IRanGd=            0 ICorTp=0 IEmpDi=121
  HFx wShort=  0.000000 wLong=  0.200000 cFull=  0.222036 cShort=  0.000000 cLong=  0.777964
  DFx wShort=  0.000000 wLong=  0.200000 cFull=  0.000000 cShort=  0.000000 cLong=  1.000000
 NAtoms=    8 NActive=    8 NUniq=    8 SFac= 1.00D+00 NAtFMM=   60 NAOKFM=F Big=F
 Integral buffers will be    131072 words long.
 Raffenetti 2 integral format.
 Two-electron integral symmetry is turned on.
 R6Disp:  Grimme-D2 Dispersion energy=       -0.0018658190 Hartrees.
 Nuclear repulsion after empirical dispersion term =       42.1760683063 Hartrees.
 Leave Link  301 at Wed Feb 24 12:13:20 2021, MaxMem=  2684354560 cpu:         0.4
 (Enter /soft/gaussian/09-e.01/g09/l302.exe)
 NPDir=0 NMtPBC=     1 NCelOv=     1 NCel=       1 NClECP=     1 NCelD=      1
         NCelK=      1 NCelE2=     1 NClLst=     1 CellRange=     0.0.
 One-electron integrals computed using PRISM.
 NBasis=    42 RedAO= T EigKep=  8.39D-03  NBF=    42
 NBsUse=    42 1.00D-06 EigRej= -1.00D+00 NBFU=    42
 Precomputing XC quadrature grid using
 IXCGrd= 4 IRadAn=           5 IRanWt=          -1 IRanGd=           0 AccXCQ= 0.00D+00.
 Generated NRdTot=       0 NPtTot=           0 NUsed=           0 NTot=          32
 NSgBfM=    42    42    42    42    42 MxSgAt=     8 MxSgA2=     8.
 Leave Link  302 at Wed Feb 24 12:13:20 2021, MaxMem=  2684354560 cpu:         1.4
 (Enter /soft/gaussian/09-e.01/g09/l303.exe)
 DipDrv:  MaxL=1.
 Leave Link  303 at Wed Feb 24 12:13:20 2021, MaxMem=  2684354560 cpu:         0.2
 (Enter /soft/gaussian/09-e.01/g09/l401.exe)
 Initial guess from the checkpoint file:  "/scratch/kmoore/Gau-31974.chk"
 B after Tr=     0.000000    0.000000   -0.000000
         Rot=    0.987869    0.155291   -0.000001   -0.000000 Ang=  17.87 deg.
 Guess basis will be translated and rotated to current coordinates.
 JPrj=2 DoOrth=T DoCkMO=T.
 Leave Link  401 at Wed Feb 24 12:13:20 2021, MaxMem=  2684354560 cpu:         0.5
 (Enter /soft/gaussian/09-e.01/g09/l502.exe)
 Closed shell SCF:
 Using DIIS extrapolation, IDIIS=  1040.
 Integral symmetry usage will be decided dynamically.
 Keep R1 ints in memory in canonical form, NReq=1691638.
 IVT=       11984 IEndB=       11984 NGot=  2684354560 MDV=  2683526265
 LenX=  2683526265 LenY=  2683524060
 Requested convergence on RMS density matrix=1.00D-08 within  64 cycles.
 Requested convergence on MAX density matrix=1.00D-06.
 Requested convergence on             energy=1.00D-06.
 No special actions if energy rises.
 FoFCou: FMM=F IPFlag=           0 FMFlag=           0 FMFlg1=           0
         NFxFlg=           0 DoJE=F BraDBF=F KetDBF=F FulRan=T
         wScrn=  0.000000 ICntrl=     600 IOpCl=  0 I1Cent=           0 NGrid=           0
         NMat0=    1 NMatS0=    903 NMatT0=    0 NMatD0=    1 NMtDS0=    0 NMtDT0=    0
 Symmetry not used in FoFCou.

 Cycle   1  Pass 1  IDiag  1:
 E= -79.8020199280106    
 DIIS: error= 3.70D-04 at cycle   1 NSaved=   1.
 NSaved= 1 IEnMin= 1 EnMin= -79.8020199280106     IErMin= 1 ErrMin= 3.70D-04
 ErrMax= 3.70D-04  0.00D+00 EMaxC= 1.00D-01 BMatC= 2.72D-06 BMatP= 2.72D-06
 IDIUse=3 WtCom= 9.96D-01 WtEn= 3.70D-03
 Coeff-Com:  0.100D+01
 Coeff-En:   0.100D+01
 Coeff:      0.100D+01
 Gap=     2.286 Goal=   None    Shift=    0.000
 RMSDP=4.28D-05 MaxDP=2.72D-04              OVMax= 6.95D-04

 Cycle   2  Pass 1  IDiag  1:
 E= -79.8020231281554     Delta-E=       -0.000003200145 Rises=F Damp=F
 DIIS: error= 8.21D-05 at cycle   2 NSaved=   2.
[...]
 04208446,0.00143430,0.00262125,0.00442365,-0.10131864,-0.06318109,-0.0
 5996192,-0.00042182,-0.00017057,0.00032923,0.00008171,-0.00070235,0.00
 002930,-0.00006122,-0.00034942,0.00009042,0.09716656,0.04752021,-0.001
 01641,-0.00179926,0.00073610,-0.05127479,-0.07260540,0.07925540,-0.000
 16084,0.00025169,0.00084934,0.00028710,0.00006027,0.00079416,0.0000347
 9,0.00009165,0.00002878,0.04537634,0.06251205,-0.08538422,0.00365072,-
 0.00001077,-0.00505968,-0.15392205,-0.01256701,0.07695670,-0.00031574,
 -0.00001330,-0.00015219,-0.00051844,0.00038447,-0.00008458,-0.00054304
 ,-0.00042176,-0.00016115,0.00825491,0.01202941,0.00428134,0.13590913,-
 0.00005352,0.00010957,0.00010256,-0.01246942,0.09739674,-0.00239785,-0
 .00001342,-0.00024082,0.00002880,0.00021266,-0.00019373,-0.00027273,-0
 .00020376,-0.00017032,0.00025200,-0.00682810,0.00486065,0.00513655,0.0
 1291236,-0.10752557,0.00199263,-0.00004864,0.00055190,0.09157998,-0.00
 253473,0.07129337,-0.00015390,0.00002878,0.00003278,-0.00008850,-0.000
 32504,0.00081904,-0.00014087,0.00032913,0.00084959,-0.00659494,-0.0009
 5066,0.00191731,-0.08032663,0.00267967,-0.07748198,0.00079336,-0.00132
 940,0.00239316,-0.01094727,0.16354384,-0.06129293,-0.00051838,0.000212
 88,-0.00008877,-0.00027865,0.00003936,-0.00005152,-0.00002491,0.000082
 23,0.00028740,0.00357975,-0.00891031,0.00247247,0.00748450,0.00644321,
 -0.00626777,-0.00008841,-0.00122923,0.00244939,-0.00453629,0.16352052,
 -0.16148078,0.08845552,0.00038492,-0.00019417,-0.00032519,0.00003928,-
 0.00024808,0.00000661,-0.00007585,-0.00070241,0.00005989,0.00975558,0.
 00940132,0.00635244,-0.01231340,0.00576347,0.00082149,-0.16008181,0.14
 501126,-0.00114059,0.00179967,0.00075722,-0.06837920,0.10127316,0.0593
 4808,-0.00008389,-0.00027254,0.00081902,-0.00005116,0.00000576,-0.0000
 9917,0.00031386,0.00002948,0.00079396,0.00224686,-0.00647206,0.0018031
 1,0.00454619,-0.00552900,0.00201800,0.06254794,-0.09083447,-0.06544022
 ,0.13315187,-0.05177324,0.12702785,0.02852067,-0.02736042,-0.22427211,
 0.00011098,-0.00021119,0.00042883,0.13335398,-0.00021102,0.00046428,-0
 .00032747,-0.05186724,0.12721883,0.00042895,-0.00032784,0.00095484,0.0
 2863474,-0.02732897,-0.22501734,-0.15438650,-0.01229211,0.07442827,0.0
 0277450,-0.00000858,-0.00427012,0.13718546,-0.01228964,0.09714257,-0.0
 0242880,-0.00004630,-0.00079253,0.00010808,0.01270333,-0.10683211,0.09
 034773,-0.00260710,0.07608005,0.00041475,-0.00004920,-0.00064561,-0.07
 802719,0.00274319,-0.08068378,-0.01129923,0.16541654,-0.06085466,-0.00
 009478,-0.00134887,0.00201357,0.00721608,0.00672303,-0.00595681,0.0008
 0615,0.16540637,-0.16366037,0.08760010,-0.00124951,0.00159229,-0.00387
 289,-0.01234489,0.00569332,0.00075784,-0.16206170,0.14783340,-0.068614
 74,0.10157318,0.06468083,-0.00035764,0.00044406,-0.00039227,0.00435698
 ,-0.00531521,0.00190998,0.06221488,-0.09014611,-0.06921337,0.02967948,
 -0.10120261,-0.04237377,0.00005614,0.00141988,0.00210745,0.00796931,-0
 .00708493,-0.00625970,0.00356191,0.00988598,0.00214962,-0.04107945,-0.
 10128259,-0.06351508,-0.05746720,0.00144590,0.00173312,0.00374862,0.01
 198998,0.00473983,-0.00087984,-0.00908045,0.00906949,-0.00619867,0.097
 34123,0.04856348,-0.05052544,-0.07124712,0.08403425,-0.00021375,-0.000
 42606,-0.00045358,0.00405385,0.00488203,0.00179920,0.00237099,0.006052
 00,0.00169057,0.04410248,0.06022180,-0.08857072,0.00005684,0.00142226,
 0.00211398,0.02978606,-0.10148748,-0.04249428,0.00000774,0.00017428,0.
 00019373,0.00022046,-0.00028227,-0.00034906,-0.00041582,-0.00025075,0.
 00043010,-0.04122260,0.00144813,0.00173741,0.00376096,-0.10156694,-0.0
 6373087,-0.05765040,-0.00044730,0.00017950,-0.00023843,0.00028483,-0.0
 0004397,0.00003823,-0.00025084,-0.00072607,0.00077689,0.09761203,0.048
 72741,-0.00021522,-0.00042841,-0.00044844,-0.05066713,-0.07146909,0.08
 430591,0.00016148,-0.00032024,0.00096309,-0.00037945,0.00006118,0.0009
 1979,0.00042948,0.00077562,-0.00038252,0.04422756,0.06041317,-0.088856
 69,0.00278026,-0.00000819,-0.00428336,-0.15471870,-0.01230644,0.074581
 40,-0.00080173,-0.00000945,-0.00094791,0.00003556,0.00040930,0.0002428
 7,0.00000801,-0.00044763,0.00016152,0.00799507,0.01202694,0.00406580,0
 .13746024,-0.00004599,-0.00079295,0.00010765,-0.01230420,0.09744211,-0
 .00245302,-0.00000955,-0.00028628,0.00002832,-0.00017017,0.00015531,0.
 00030295,0.00017398,0.00017908,-0.00032054,-0.00710169,0.00475619,0.00
 489741,0.01271679,-0.10716331,0.00041794,-0.00004935,-0.00064115,0.090
 54375,-0.00263001,0.07634249,-0.00094642,0.00002841,-0.00038440,0.0002
 3510,0.00024523,0.00096126,0.00019327,-0.00023847,0.00096325,-0.006278
 64,-0.00088334,0.00180385,-0.07818981,0.00276755,-0.08096056,-0.000093
 70,-0.00135145,0.00202003,-0.01126818,0.16580976,-0.06100171,0.0000351
 4,-0.00017032,0.00023540,-0.00044615,0.00023673,0.00035709,0.00022041,
 0.00028431,-0.00037975,0.00357224,-0.00910684,0.00237748,0.00724128,0.
 00674084,-0.00597520,0.00073897,-0.00125200,0.00159628,-0.00388483,0.1
 6579948,-0.16392724,0.08777641,0.00040912,0.00015570,0.00024522,0.0002
 3680,-0.00063946,-0.00069844,-0.00028269,-0.00004386,0.00006099,0.0099
 1362,0.00910039,0.00607037,-0.01238132,0.00570985,0.00075999,-0.162443
 02,0.14804834,-0.00035990,0.00044705,-0.00038826,-0.06878356,0.1017867
 3,0.06490556,0.00024315,0.00030255,0.00096147,0.00035638,-0.00069735,-
 0.00055678,-0.00034881,0.00003813,0.00091956,0.00215660,-0.00621708,0.
 00169502,0.00436948,-0.00533033,0.00191525,0.06236665,-0.09032971,-0.0
 6945182,0.10849405,-0.28644649,0.29806602,0.11589688,-0.22447738,-0.19
 456528,-0.01318941,0.00364267,0.00054283,0.10826949,0.00364319,-0.0163
 0706,0.00011483,-0.28634634,0.29770304,0.00054386,0.00011263,0.0186674
 3,0.11590786,-0.22434257,-0.19470724,-0.11323678,-0.02448222,0.0694265
 1,0.00319766,-0.00123348,-0.00194010,0.10242996,-0.02857949,0.07586770
 ,0.00312952,0.00078590,0.00053506,-0.00006223,0.03282919,-0.08268678,0
 .08118785,0.00259105,0.04197624,0.00085848,0.00084650,-0.00001869,-0.0
 7702851,-0.00284756,-0.04325851,0.01163154,0.36562191,-0.16415994,0.00
 168057,-0.00318032,0.00304112,0.00343495,-0.00311430,0.00028273,-0.013
 59513,0.36625505,-0.34921903,0.25361550,-0.00330870,0.00571730,-0.0060
 5341,-0.01176598,0.00282600,0.00230911,-0.35474266,0.33408043,-0.16612
 738,0.25787273,0.10316494,-0.00129206,0.00232304,0.00224706,0.00686452
 ,-0.00165666,-0.00217044,0.16186671,-0.24995745,-0.10123637,0.00052560
 ,-0.05529979,-0.02340021,0.00089604,0.00137811,0.00059200,0.00545830,-
 0.00203078,-0.00408398,-0.00272665,0.00195592,-0.00220164,-0.00449539,
 -0.05205743,-0.01653049,-0.02709460,-0.00029084,0.00186943,0.00082949,
 0.00399421,0.00299621,-0.00246846,-0.00605388,0.00849401,-0.00686735,0
 .05468615,0.00410913,-0.03020835,-0.03891936,0.02876622,-0.00085975,-0
 .00034872,-0.00023865,0.00352366,0.00179895,0.00244344,-0.00170986,0.0
 0140877,-0.00174935,0.02848049,0.03511372,-0.03034700,0.00089622,0.001
 37811,0.00059197,0.00053623,-0.05529480,-0.02339771,-0.00001091,0.0002
 5621,-0.00029678,0.00044673,-0.00038807,0.00054160,-0.00009379,-0.0005
 5772,0.00036864,-0.00450616,-0.00029097,0.00186906,0.00082981,-0.05204
 949,-0.01654455,-0.02709968,-0.00009165,-0.00010241,0.00027292,0.00037
 116,-0.00067022,-0.00000414,-0.00055773,-0.00016550,0.00021838,0.05468
 013,0.00411922,-0.00085949,-0.00034876,-0.00023795,-0.03020584,-0.0389
 2810,0.02877756,-0.00003070,0.00038339,0.00038937,0.00043577,0.0003450
 9,0.00053290,0.00036857,0.00021840,0.00020294,0.02847823,0.03512135,-0
 .03035840,0.00319712,-0.00123291,-0.00194026,-0.11315420,-0.02447239,0
 .06938092,-0.00083711,-0.00030279,-0.00060857,-0.00043568,0.00105236,-
 0.00020686,-0.00001101,-0.00009173,-0.00003075,0.00545869,0.00399527,0
 .00352401,0.10234436,0.00078588,0.00053546,-0.00006311,-0.02857243,0.0
 7587479,0.00312265,-0.00030287,0.00032824,-0.00023551,0.00015616,0.000
 23603,-0.00050980,0.00025626,-0.00010255,0.00038347,-0.00202967,0.0029
 9731,0.00179943,0.03282124,-0.08269490,0.00085869,0.00084634,-0.000018
 40,0.08114463,0.00258424,0.04200517,-0.00060857,-0.00023553,-0.0000152
 8,-0.00031124,-0.00046786,0.00065356,-0.00029684,0.00027292,0.00038945
 ,-0.00408425,-0.00246944,0.00244345,-0.07698432,-0.00284064,-0.0432871
 9,0.00168167,-0.00318128,0.00304222,0.01176363,0.36550604,-0.16412795,
 -0.00043607,0.00015605,-0.00031123,-0.00043633,0.00094207,0.00055511,0
 .00044690,0.00037123,0.00043592,-0.00272702,-0.00605671,-0.00171055,0.
 00343783,-0.00311458,0.00028190,-0.01373060,-0.00330974,0.00571833,-0.
 00605458,0.36613923,-0.34884801,0.25349313,0.00105279,0.00023598,-0.00
 046806,0.00094191,-0.00146453,-0.00120035,-0.00038813,-0.00067025,0.00
 034480,0.00195581,0.00849708,0.00140919,-0.01176905,0.00282561,0.00230
 996,-0.35462282,0.33370579,-0.00129206,0.00232275,0.00224681,-0.166096
 15,0.25775079,0.10326734,-0.00020683,-0.00050990,0.00065388,0.00055470
 ,-0.00119975,-0.00144231,0.00054162,-0.00000412,0.00053294,-0.00220169
 ,-0.00686920,-0.00174986,0.00686583,-0.00165649,-0.00217077,0.16183458
 ,-0.24983409,-0.10133804,0.18256638,0.19670366,-0.02785176,-0.06105954
 ,0.18050908,-0.23318842,-0.01770413,-0.00423052,0.00029178,0.18231276,
 -0.00422954,-0.01362390,-0.00048839,0.19652617,-0.02789059,0.00029056,
 -0.00049439,0.01873976,-0.06099790,0.18044135,-0.23319455,-0.25106826,
 -0.00429858,0.16562591,0.00629247,0.00121990,-0.00462975,0.23290007,0.
 00074229,0.17390625,-0.00806751,-0.00089989,0.00015945,0.00023828,-0.0
 0392711,-0.17427251,0.17405198,-0.00746869,0.09313739,0.00186327,-0.00
 092609,0.00103308,-0.16712437,0.00800224,-0.09265710,-0.01094872,0.001
 63980,0.00517299,0.00076362,-0.00007858,-0.00025121,0.00715251,0.00203
 156,-0.00522227,0.00250390,0.00086802,-0.00560661,-0.01079141,0.000259
 16,0.00072988,0.00044440,-0.00458629,0.00061089,0.00381600,-0.00356776
 ,-0.00286000,-0.00250734,0.00273781,-0.00202844,-0.00027214,0.00000754
 ,-0.00090973,0.00218218,-0.00043491,0.00132486,0.00103114,-0.00012974,
 -0.00030801,0.08819738,-0.19314281,-0.10783657,0.00190560,0.00218739,0
 .00268671,0.00699953,0.00217438,-0.00174192,0.00028938,0.00665758,-0.0
 0100952,-0.09679437,-0.19736099,-0.13283455,-0.16680253,0.00391887,0.0
 0512429,0.00496271,0.01238343,-0.00091394,-0.00391462,-0.00050621,0.00
 753016,-0.00152094,0.18340413,0.12265373,-0.11178491,-0.17215806,0.121
 56905,-0.00058187,-0.00220813,0.00164687,0.00529950,-0.00012652,-0.003
 37507,-0.00101987,0.00703400,0.00049040,0.10739879,0.16562208,-0.12066
 670,0.00190409,0.00218616,0.00268492,0.08819076,-0.19298219,-0.1077557
 9,-0.00062314,-0.00024186,-0.00036112,0.00014163,-0.00027606,0.0004046
 3,-0.00011578,-0.00076260,0.00045886,-0.09678386,0.00391708,0.00512182
 ,0.00495999,-0.19719970,-0.13278512,-0.16672112,-0.00139531,0.00034919
 ,0.00055508,0.00031915,-0.00032183,-0.00017487,-0.00076276,-0.00158694
 ,0.00127245,0.18324816,0.12260782,-0.00058209,-0.00220801,0.00164799,-
 0.11170386,-0.17207872,0.12154016,-0.00024466,0.00053959,0.00076281,0.
 00047463,0.00002451,0.00047227,0.00045920,0.00127315,-0.00090019,0.107
 31941,0.16554427,-0.12063962,0.00629015,0.00122071,-0.00462810,-0.2508
 1212,-0.00427835,0.16548271,-0.00152571,0.00027059,-0.00120889,-0.0001
 2730,0.00033343,0.00009985,-0.00062349,-0.00139582,-0.00024514,0.00699
 687,0.01238054,0.00529729,0.23264977,-0.00089930,0.00015868,0.00023642
 ,0.00076050,0.17389078,-0.00808101,0.00027035,0.00021046,0.00029396,-0
 .00014989,-0.00004960,-0.00044498,-0.00024178,0.00034902,0.00053968,0.
 00217488,-0.00091208,-0.00012605,-0.00394676,-0.17425622,0.00186440,-0
 .00092593,0.00103299,0.17390533,-0.00748162,0.09317466,-0.00120930,0.0
 0029402,-0.00064582,-0.00025671,-0.00035785,0.00041990,-0.00036133,0.0
 0055505,0.00076322,-0.00174230,-0.00391479,-0.00337416,-0.16697823,0.0
 0801612,-0.09269491,0.00076311,-0.00007841,-0.00025139,-0.01094898,0.0
 0163519,0.00517466,-0.00012747,-0.00014996,-0.00025668,0.00022498,0.00
 031192,0.00007120,0.00014174,0.00031919,0.00047465,0.00028944,-0.00050
 716,-0.00101993,0.00715183,0.00203200,-0.00522187,0.00250535,0.0002587
 9,0.00073008,0.00044434,0.00086540,-0.00560479,-0.01079021,0.00033361,
 -0.00004980,-0.00035788,0.00031193,-0.00003288,-0.00003991,-0.00027614
 ,-0.00032177,0.00002450,0.00665351,0.00752714,0.00703127,-0.00458435,0
 .00060896,0.00381501,-0.00356275,-0.00285693,-0.00027306,0.00000818,-0
 .00091031,-0.00250461,0.00273407,-0.00203027,0.00010048,-0.00044519,0.
 00041985,0.00007130,-0.00003989,0.00053875,0.00040464,-0.00017490,0.00
 047241,-0.00100861,-0.00152100,0.00049073,0.00218051,-0.00043414,0.001
 32412,0.00102935,-0.00012714,-0.00030529,0.10577212,-0.28533234,0.2910
 7913,0.11581545,-0.22848389,-0.18766394,-0.01141463,0.00176014,-0.0015
 5131,0.10548554,0.00176079,-0.01298323,0.00551184,-0.28514328,0.290672
 89,-0.00154895,0.00551326,0.01154359,0.11583515,-0.22827644,-0.1877552
 9,-0.11280782,-0.02567713,0.06962684,0.00358770,-0.00077484,-0.0029306
 6,0.10165466,-0.02861603,0.07675890,0.00334262,0.00013262,0.00033918,-
 0.00046281,0.03343309,-0.08386683,0.08058673,0.00275590,0.04330842,0.0
 0034196,0.00047367,-0.00059599,-0.07652302,-0.00345944,-0.04399892,0.0
 1209163,0.36518685,-0.16390060,0.00188603,-0.00296845,0.00438841,0.003
 30803,-0.00332254,0.00080819,-0.01484297,0.36566758,-0.34824047,0.2530
 4060,-0.00293600,0.00555071,-0.00850524,-0.01128745,0.00285376,0.00236
 972,-0.35437297,0.33258258,-0.16513286,0.25600391,0.10550678,-0.000536
 05,0.00092743,-0.00055830,0.00657066,-0.00135638,-0.00243574,0.1606528
 5,-0.24786630,-0.10243619,0.00016385,-0.05339492,-0.02261453,0.0007207
 7,0.00119851,0.00116482,0.00557142,-0.00213807,-0.00415090,-0.00255111
 ,0.00165554,-0.00221984,-0.00446713,-0.05115453,-0.01471576,-0.0256036
 2,0.00047681,0.00221249,0.00115863,0.00402736,0.00308934,-0.00232748,-
 0.00578382,0.00829373,-0.00656070,0.05328671,0.00212776,-0.02911477,-0
 .03697224,0.02886288,-0.00041166,-0.00021678,-0.00040196,0.00340381,0.
 00186610,0.00235466,-0.00196559,0.00103179,-0.00193921,0.02780832,0.03
 315211,-0.02999792,0.00072140,0.00120027,0.00116663,0.00017993,-0.0533
 9617,-0.02261695,-0.00017221,-0.00005542,-0.00026516,0.00061137,-0.000
 26318,-0.00002038,0.00012305,-0.00028915,0.00029781,-0.00447964,0.0004
 7696,0.00221232,0.00116110,-0.05115237,-0.01473737,-0.02561641,-0.0004
 8533,0.00008382,0.00031396,-0.00007809,-0.00063596,-0.00031860,-0.0002
 8924,-0.00045531,0.00018534,0.05328731,0.00215074,-0.00041121,-0.00021
 876,-0.00040253,-0.02911474,-0.03698551,0.02887863,-0.00011255,0.00039
 858,0.00015720,0.00009425,0.00055547,0.00022812,0.00029729,0.00018543,
 0.00073605,0.02780760,0.03316424,-0.03001245,0.00358688,-0.00077426,-0
 .00293178,-0.11266339,-0.02565485,0.06953689,-0.00069485,0.00011449,-0
 .00046390,-0.00044679,0.00064942,0.00042889,-0.00017230,-0.00048530,-0
 .00011239,0.00556726,0.00402840,0.00340429,0.10151657,0.00013385,0.000
 33885,-0.00046316,-0.02859593,0.07671971,0.00333385,0.00011454,0.00026
 959,-0.00018310,0.00045189,0.00047235,-0.00014609,-0.00005535,0.000083
 75,0.00039878,-0.00214048,0.00308979,0.00186664,0.03340994,-0.08382713
 ,0.00034333,0.00047258,-0.00059691,0.08049794,0.00274752,0.04331424,-0
 .00046412,-0.00018267,0.00086636,-0.00033391,0.00005705,0.00034341,-0.
 00026490,0.00031398,0.00015719,-0.00415016,-0.00232788,0.00235388,-0.0
 7643321,-0.00345021,-0.04400396,0.00188659,-0.00296860,0.00438929,0.01
 221804,0.36497827,-0.16382872,-0.00044694,0.00045185,-0.00033390,-0.00
 005618,0.00088705,0.00025673,0.00061145,-0.00007808,0.00009448,-0.0025
 5115,-0.00578764,-0.00196493,0.00330661,-0.00331845,0.00080504,-0.0149
 6843,-0.00293627,0.00555026,-0.00850549,0.36545800,-0.34777437,0.25285
 516,0.00064976,0.00047225,0.00005677,0.00088712,-0.00087671,-0.0006832
 6,-0.00026319,-0.00063600,0.00055490,0.00165682,0.00829196,0.00103390,
 -0.01128784,0.00285309,0.00236963,-0.35416439,0.33211952,-0.00053772,0
 .00092924,-0.00055828,-0.16506129,0.25581828,0.10557506,0.00042903,-0.
 00014600,0.00034401,0.00025640,-0.00068309,0.00129112,-0.00002026,-0.0
 0031836,0.00022830,-0.00221939,-0.00656175,-0.00193890,0.00657121,-0.0
 0135670,-0.00243420,0.16058201,-0.24768161,-0.10250712,0.17442609,0.19
 344283,-0.03058965,-0.06019642,0.18304805,-0.22658940,-0.01437680,-0.0
 0238048,0.00242629,0.17428543,-0.00237939,-0.01184976,-0.00602324,0.19
 343956,-0.03060264,0.00242377,-0.00601936,0.01158123,-0.06014652,0.183
 14501,-0.22675999,-0.24735030,-0.00289152,0.16332932,0.00624228,0.0007
 6746,-0.00654720,0.22889999,0.00089475,0.17266759,-0.00830371,-0.00023
 791,0.00026613,0.00063831,-0.00467141,-0.17371360,0.17063766,-0.007700
 04,0.09419759,0.00073815,-0.00055812,-0.00074549,-0.16363554,0.0086736
 7,-0.09285311,-0.01072257,0.00199822,0.00502812,0.00058092,-0.00048603
 ,-0.00013399,0.00717464,0.00207751,-0.00520924,0.00219041,0.00139042,-
 0.00523944,-0.01069671,-0.00030563,0.00115683,0.00037431,-0.00451061,0
 .00076881,0.00360872,-0.00394108,-0.00350454,-0.00245567,0.00250490,-0
 .00130587,-0.00021262,0.00000379,-0.00044513,0.00210661,-0.00036477,0.
 00122817,0.00117075,-0.00006982,-0.00072586,0.08910001,-0.19301437,-0.
 10746350,0.00210003,0.00256114,0.00355816,0.00676296,0.00246303,-0.001
 12060,0.00039388,0.00657534,-0.00112899,-0.09822549,-0.19614345,-0.131
 42810,-0.16619245,0.00333722,0.00501206,0.00715189,0.01171804,-0.00087
 339,-0.00390423,-0.00043190,0.00751757,-0.00132346,0.18287943,0.120690
 56,-0.11073437,-0.17036867,0.12385676,-0.00020082,-0.00090985,-0.00054
 988,0.00500679,-0.00060249,-0.00365271,-0.00090737,0.00687296,0.000317
 64,0.10594852,0.16386159,-0.12194203,0.00210029,0.00256164,0.00356029,
 0.08916427,-0.19303472,-0.10748118,-0.00047140,-0.00060093,-0.00037858
 ,0.00044040,-0.00001114,0.00032875,-0.00010030,-0.00085283,0.00025637,
 -0.09829064,0.00333800,0.00501461,0.00715753,-0.19616551,-0.13150466,-
 0.16626229,-0.00087779,0.00047022,-0.00021046,0.00037161,-0.00051767,-
 0.00020820,-0.00085275,-0.00087135,0.00082538,0.18289705,0.12076349,-0
 .00020112,-0.00091016,-0.00055006,-0.11075351,-0.17044219,0.12394044,0
 .00045716,0.00014907,0.00041582,0.00017370,0.00017176,0.00020826,0.000
 25630,0.00082470,0.00134564,0.10596554,0.16393027,-0.12202313,0.006242
 60,0.00076821,-0.00655070,-0.24726017,-0.00286808,0.16329560,-0.001136
 16,-0.00014414,-0.00080493,-0.00012194,0.00061006,0.00008671,-0.000471
 50,-0.00087797,0.00045710,0.00676334,0.01172514,0.00501016,0.22880643,
 -0.00023698,0.00026677,0.00063801,0.00091960,0.17276122,-0.00832552,-0
 .00014415,0.00039295,0.00024092,0.00021911,0.00002139,-0.00043141,-0.0
 0060092,0.00047012,0.00014908,0.00246187,-0.00087232,-0.00060030,-0.00
 470131,-0.17380756,0.00074102,-0.00055887,-0.00074487,0.17060647,-0.00
 772023,0.09428840,-0.00080461,0.00024130,0.00123750,-0.00022689,-0.000
 15050,0.00017257,-0.00037848,-0.00021033,0.00041641,-0.00112163,-0.003
 90757,-0.00365433,-0.16360175,0.00869563,-0.09294557,0.00058068,-0.000
 48452,-0.00013340,-0.01073596,0.00200005,0.00503136,-0.00012201,0.0002
 1910,-0.00022693,0.00006427,0.00019264,0.00010447,0.00044041,0.0003714
 6,0.00017379,0.00039403,-0.00043575,-0.00090822,0.00717740,0.00208277,
 -0.00521414,0.00220117,-0.00030618,0.00115797,0.00037252,0.00139315,-0
 .00523919,-0.01070234,0.00061000,0.00002129,-0.00015047,0.00019255,-0.
 00020294,-0.00011103,-0.00001090,-0.00051747,0.00017201,0.00657906,0.0
 0751768,0.00687684,-0.00451192,0.00076744,0.00361057,-0.00394575,-0.00
 350478,-0.00021486,0.00000416,-0.00044537,-0.00245742,0.00250483,-0.00
 130957,0.00008746,-0.00043138,0.00017223,0.00010492,-0.00011071,0.0005
 5023,0.00032857,-0.00020770,0.00020817,-0.00112956,-0.00132466,0.00031
 735,0.00210781,-0.00036642,0.00122988,0.00117307,-0.00006811,-0.000722
 92\\@


 FROM THE ASHES OF OUR DESPAIR GROW THE FLOWERS OF TOMORROW.
 Job cpu time:       0 days  0 hours 49 minutes 13.5 seconds.
 File lengths (MBytes):  RWF=     44 Int=      0 D2E=      0 Chk=     39 Scr=      1
 Normal termination of Gaussian 09 at Wed Feb 24 12:18:27 2021.
