 Entering Gaussian System, Link 0=g09
 Initial command:
 /soft/gaussian/09-e.01/g09/l1.exe "/scratch/kmoore/Gau-3771.inp" -scrdir="/scratch/kmoore"
 Entering Link 1 = /soft/gaussian/09-e.01/g09/l1.exe PID=      3772.
  
 Copyright (c) 1988,1990,1992,1993,1995,1998,2003,2009,2015,
            Gaussian, Inc.  All Rights Reserved.
  
 This is part of the Gaussian(R) 09 program.  It is based on
 the Gaussian(R) 03 system (copyright 2003, Gaussian, Inc.),
 the Gaussian(R) 98 system (copyright 1998, Gaussian, Inc.),
 the Gaussian(R) 94 system (copyright 1995, Gaussian, Inc.),
 the Gaussian 92(TM) system (copyright 1992, Gaussian, Inc.),
 the Gaussian 90(TM) system (copyright 1990, Gaussian, Inc.),
 the Gaussian 88(TM) system (copyright 1988, Gaussian, Inc.),
 the Gaussian 86(TM) system (copyright 1986, Carnegie Mellon
 University), and the Gaussian 82(TM) system (copyright 1983,
 Carnegie Mellon University). Gaussian is a federally registered
 trademark of Gaussian, Inc.
  
 This software contains proprietary and confidential information,
 including trade secrets, belonging to Gaussian, Inc.
  
 This software is provided under written license and may be
 used, copied, transmitted, or stored only in accord with that
 written license.
  
 The following legend is applicable only to US Government
 contracts under FAR:
  
                    RESTRICTED RIGHTS LEGEND
  
 Use, reproduction and disclosure by the US Government is
 subject to restrictions as set forth in subparagraphs (a)
 and (c) of the Commercial Computer Software - Restricted
 Rights clause in FAR 52.227-19.
  
 Gaussian, Inc.
 340 Quinnipiac St., Bldg. 40, Wallingford CT 06492
  
  
 ---------------------------------------------------------------
 Warning -- This program may not be used in any manner that
 competes with the business of Gaussian, Inc. or will provide
 assistance to any competitor of Gaussian, Inc.  The licensee
 of this program is prohibited from giving any competitor of
 Gaussian, Inc. access to this program.  By using this program,
 the user acknowledges that Gaussian, Inc. is engaged in the
 business of creating and licensing software in the field of
 computational chemistry and represents and warrants to the
 licensee that it is not a competitor of Gaussian, Inc. and that
 it will not use this program in any manner prohibited above.
 ---------------------------------------------------------------
  

 Cite this work as:
 Gaussian 09, Revision E.01,
 M. J. Frisch, G. W. Trucks, H. B. Schlegel, G. E. Scuseria, 
 M. A. Robb, J. R. Cheeseman, G. Scalmani, V. Barone, B. Mennucci, 
 G. A. Petersson, H. Nakatsuji, M. Caricato, X. Li, H. P. Hratchian, 
 A. F. Izmaylov, J. Bloino, G. Zheng, J. L. Sonnenberg, M. Hada, 
 M. Ehara, K. Toyota, R. Fukuda, J. Hasegawa, M. Ishida, T. Nakajima, 
 Y. Honda, O. Kitao, H. Nakai, T. Vreven, J. A. Montgomery, Jr., 
 J. E. Peralta, F. Ogliaro, M. Bearpark, J. J. Heyd, E. Brothers, 
 K. N. Kudin, V. N. Staroverov, T. Keith, R. Kobayashi, J. Normand, 
 K. Raghavachari, A. Rendell, J. C. Burant, S. S. Iyengar, J. Tomasi, 
 M. Cossi, N. Rega, J. M. Millam, M. Klene, J. E. Knox, J. B. Cross, 
 V. Bakken, C. Adamo, J. Jaramillo, R. Gomperts, R. E. Stratmann, 
 O. Yazyev, A. J. Austin, R. Cammi, C. Pomelli, J. W. Ochterski, 
 R. L. Martin, K. Morokuma, V. G. Zakrzewski, G. A. Voth, 
 P. Salvador, J. J. Dannenberg, S. Dapprich, A. D. Daniels, 
 O. Farkas, J. B. Foresman, J. V. Ortiz, J. Cioslowski, 
 and D. J. Fox, Gaussian, Inc., Wallingford CT, 2013.
 
 ******************************************
 Gaussian 09:  ES64L-G09RevE.01 30-Nov-2015
                 3-Nov-2019 
 ******************************************
 ---------------------
 # b2plypd3 6-31g* Opt
 ---------------------
 1/18=20,19=15,38=1/1,3;
 2/9=110,12=2,17=6,18=5,40=1/2;
 3/5=1,6=6,7=1,11=9,16=1,25=1,30=1,71=1,74=-60/1,2,3;
 4//1;
 5/5=2,38=5/2;
 8/6=4,10=2/1;
 9/15=2,16=-3/6;
 10/5=1/2;
 6/7=2,8=2,9=2,10=2/1;
 7/12=2/1,2,3,16;
 1/18=20,19=15/3(2);
 2/9=110/2;
 99//99;
 2/9=110/2;
 3/5=1,6=6,7=1,11=9,16=1,25=1,30=1,71=1,74=-60/1,2,3;
 4/5=5,16=3,69=1/1;
 5/5=2,38=5/2;
 8/6=4,10=2/1;
 9/15=2,16=-3/6;
 10/5=1/2;
 7/12=2/1,2,3,16;
 1/18=20,19=15/3(-8);
 2/9=110/2;
 6/7=2,8=2,9=2,10=2/1;
 99//99;
 -------
 comment
 -------
 Symbolic Z-matrix:
 Charge =  0 Multiplicity = 1
 O                    -1.86669   0.29281   0.01734 
 H                    -0.87736   0.2618   -0.01224 
 H                    -2.15605  -0.39251  -0.63628 
 

 GradGradGradGradGradGradGradGradGradGradGradGradGradGradGradGradGradGrad
 Berny optimization.
 Initialization pass.
                           ----------------------------
                           !    Initial Parameters    !
                           ! (Angstroms and Degrees)  !
 --------------------------                            --------------------------
 ! Name  Definition              Value          Derivative Info.                !
 --------------------------------------------------------------------------------
 ! R1    R(1,2)                  0.9903         estimate D2E/DX2                !
 ! R2    R(1,3)                  0.9903         estimate D2E/DX2                !
 ! A1    A(2,1,3)              104.51           estimate D2E/DX2                !
 --------------------------------------------------------------------------------
 Trust Radius=3.00D-01 FncErr=1.00D-07 GrdErr=1.00D-07
 Number of steps in this run=     20 maximum allowed number of steps=    100.
 GradGradGradGradGradGradGradGradGradGradGradGradGradGradGradGradGradGrad

                          Input orientation:                          
 ---------------------------------------------------------------------
 Center     Atomic      Atomic             Coordinates (Angstroms)
 Number     Number       Type             X           Y           Z
 ---------------------------------------------------------------------
      1          8           0       -1.866686    0.292810    0.017338
      2          1           0       -0.877359    0.261796   -0.012241
      3          1           0       -2.156051   -0.392506   -0.636277
 ---------------------------------------------------------------------
                    Distance matrix (angstroms):
                    1          2          3
     1  O    0.000000
     2  H    0.990254   0.000000
     3  H    0.990254   1.566073   0.000000
 Stoichiometry    H2O
 Framework group  C2V[C2(O),SGV(H2)]
 Deg. of freedom     2
 Full point group                 C2V     NOp   4
 Largest Abelian subgroup         C2V     NOp   4
 Largest concise Abelian subgroup C2      NOp   2
                         Standard orientation:                         
 ---------------------------------------------------------------------
 Center     Atomic      Atomic             Coordinates (Angstroms)
 Number     Number       Type             X           Y           Z
 ---------------------------------------------------------------------
      1          8           0        0.000000    0.000000    0.121236
      2          1           0        0.000000    0.783037   -0.484946
      3          1           0       -0.000000   -0.783037   -0.484946
 ---------------------------------------------------------------------
 Rotational constants (GHZ):    768.3176893    408.9195911    266.8792100
 Standard basis: 6-31G(d) (6D, 7F)
 There are    10 symmetry adapted cartesian basis functions of A1  symmetry.
 There are     1 symmetry adapted cartesian basis functions of A2  symmetry.
 There are     3 symmetry adapted cartesian basis functions of B1  symmetry.
 There are     5 symmetry adapted cartesian basis functions of B2  symmetry.
 There are    10 symmetry adapted basis functions of A1  symmetry.
 There are     1 symmetry adapted basis functions of A2  symmetry.
 There are     3 symmetry adapted basis functions of B1  symmetry.
 There are     5 symmetry adapted basis functions of B2  symmetry.
    19 basis functions,    36 primitive gaussians,    19 cartesian basis functions
     5 alpha electrons        5 beta electrons
       nuclear repulsion energy         8.8880640023 Hartrees.
 NAtoms=    3 NActive=    3 NUniq=    2 SFac= 2.25D+00 NAtFMM=   60 NAOKFM=F Big=F
 Integral buffers will be    131072 words long.
 Regular integral format.
 Two-electron integral symmetry is turned on.
 Nuclear repulsion after empirical dispersion term =        8.8878296613 Hartrees.
 One-electron integrals computed using PRISM.
 NBasis=    19 RedAO= T EigKep=  4.39D-02  NBF=    10     1     3     5
 NBsUse=    19 1.00D-06 EigRej= -1.00D+00 NBFU=    10     1     3     5
 ExpMin= 1.61D-01 ExpMax= 5.48D+03 ExpMxC= 8.25D+02 IAcc=1 IRadAn=         1 AccDes= 0.00D+00
 Harris functional with IExCor=  419 and IRadAn=       1 diagonalized for initial guess.
 HarFok:  IExCor=  419 AccDes= 0.00D+00 IRadAn=         1 IDoV= 1 UseB2=F ITyADJ=14
 ICtDFT=  3500011 ScaDFX=  1.000000  1.000000  1.000000  1.000000
 FoFCou: FMM=F IPFlag=           0 FMFlag=      100000 FMFlg1=           0
         NFxFlg=           0 DoJE=T BraDBF=F KetDBF=T FulRan=T
         wScrn=  0.000000 ICntrl=     500 IOpCl=  0 I1Cent=   200000004 NGrid=           0
         NMat0=    1 NMatS0=      1 NMatT0=    0 NMatD0=    1 NMtDS0=    0 NMtDT0=    0
 Petite list used in FoFCou.
 Initial guess orbital symmetries:
       Occupied  (A1) (A1) (B2) (A1) (B1)
       Virtual   (A1) (B2) (B2) (A1) (B1) (A1) (B2) (A1) (A1) (A2)
                 (B1) (A1) (B2) (A1)
 The electronic state of the initial guess is 1-A1.
 Keep R1 ints in memory in symmetry-blocked form, NReq=898557.
 Requested convergence on RMS density matrix=1.00D-08 within 128 cycles.
 Requested convergence on MAX density matrix=1.00D-06.
 Requested convergence on             energy=1.00D-06.
 No special actions if energy rises.
 Integral accuracy reduced to 1.0D-05 until final iterations.
 Initial convergence to 1.0D-05 achieved.  Increase integral accuracy.
 SCF Done:  E(RB2PLYPD3) =  -76.2732339990     A.U. after   11 cycles
            NFock= 11  Conv=0.31D-08     -V/T= 2.0070
 DoSCS=T DFT=T ScalE2(SS,OS)=  0.270000  0.270000
 ExpMin= 1.61D-01 ExpMax= 5.48D+03 ExpMxC= 8.25D+02 IAcc=3 IRadAn=         5 AccDes= 0.00D+00
 HarFok:  IExCor=  205 AccDes= 0.00D+00 IRadAn=         5 IDoV=-2 UseB2=F ITyADJ=14
 ICtDFT= 12500011 ScaDFX=  1.000000  1.000000  1.000000  1.000000
 Range of M.O.s used for correlation:     2    19
 NBasis=    19 NAE=     5 NBE=     5 NFC=     1 NFV=     0
 NROrb=     18 NOA=     4 NOB=     4 NVA=    14 NVB=    14
 DoSCS=T DFT=T ScalE2(SS,OS)=  0.270000  0.270000
 Fully direct method using O(ONN) memory.
 JobTyp=1 Pass  1:  I=   2 to   5 NPSUse=  1 ParTrn=F ParDer=F DoDerP=T.
 Spin components of T(2) and E(2):
     alpha-alpha T2 =       0.9167597307D-02 E2=     -0.7733819078D-02
     alpha-beta  T2 =       0.5627098959D-01 E2=     -0.4559357365D-01
     beta-beta   T2 =       0.9167597307D-02 E2=     -0.7733819078D-02
 E2(B2PLYPD3) =    -0.6106121180D-01 E(B2PLYPD3) =    -0.76334295210769D+02
          IDoAtm=111
          Differentiating once with respect to electric field.
                with respect to dipole field.
          Differentiating once with respect to nuclear coordinates.
 Keep R1 ints in memory in symmetry-blocked form, NReq=878964.
          There are     1 degrees of freedom in the 1st order CPHF.  IDoFFX=0 NUNeed=     1.
 LinEq1:  Iter=  0 NonCon=     1 RMS=2.75D-03 Max=1.36D-02 NDo=     1
 AX will form     1 AO Fock derivatives at one time.
 LinEq1:  Iter=  1 NonCon=     1 RMS=4.59D-04 Max=2.78D-03 NDo=     1
 LinEq1:  Iter=  2 NonCon=     1 RMS=2.25D-04 Max=9.05D-04 NDo=     1
 LinEq1:  Iter=  3 NonCon=     1 RMS=1.95D-05 Max=8.94D-05 NDo=     1
 LinEq1:  Iter=  4 NonCon=     1 RMS=2.29D-06 Max=9.77D-06 NDo=     1
 LinEq1:  Iter=  5 NonCon=     1 RMS=3.97D-07 Max=1.51D-06 NDo=     1
 LinEq1:  Iter=  6 NonCon=     1 RMS=2.75D-08 Max=1.69D-07 NDo=     1
 LinEq1:  Iter=  7 NonCon=     1 RMS=1.11D-09 Max=5.25D-09 NDo=     1
 LinEq1:  Iter=  8 NonCon=     0 RMS=7.89D-11 Max=4.22D-10 NDo=     1
 Linear equations converged to 1.000D-10 1.000D-09 after     8 iterations.
 End of Minotr F.D. properties file   721 does not exist.
 End of Minotr F.D. properties file   722 does not exist.
 End of Minotr F.D. properties file   788 does not exist.

 **********************************************************************

            Population analysis using the SCF density.

 **********************************************************************

 Orbital symmetries:
       Occupied  (A1) (A1) (B2) (A1) (B1)
       Virtual   (A1) (B2) (B2) (A1) (A1) (B1) (B2) (A1) (A1) (A2)
                 (B1) (A1) (B2) (A1)
 The electronic state is 1-A1.
 Alpha  occ. eigenvalues --  -19.73710  -1.12788  -0.58498  -0.45075  -0.37557
 Alpha virt. eigenvalues --    0.11627   0.20401   0.86486   0.95295   0.99473
 Alpha virt. eigenvalues --    1.00403   1.18658   1.28593   1.85650   1.87016
 Alpha virt. eigenvalues --    1.90307   2.38959   2.68436   3.71006
          Condensed to atoms (all electrons):
               1          2          3
     1  O    8.315916   0.246816   0.246816
     2  H    0.246816   0.368355  -0.019944
     3  H    0.246816  -0.019944   0.368355
 Mulliken charges:
               1
     1  O   -0.809548
     2  H    0.404774
     3  H    0.404774
 Sum of Mulliken charges =  -0.00000
 Mulliken charges with hydrogens summed into heavy atoms:
               1
     1  O   -0.000000
 Electronic spatial extent (au):  <R**2>=             19.4206
 Charge=             -0.0000 electrons
 Dipole moment (field-independent basis, Debye):
    X=             -0.0000    Y=              0.0000    Z=             -2.1603  Tot=              2.1603
 Quadrupole moment (field-independent basis, Debye-Ang):
   XX=             -7.2613   YY=             -4.1455   ZZ=             -6.0005
   XY=              0.0000   XZ=             -0.0000   YZ=             -0.0000
 Traceless Quadrupole moment (field-independent basis, Debye-Ang):
   XX=             -1.4589   YY=              1.6569   ZZ=             -0.1981
   XY=              0.0000   XZ=             -0.0000   YZ=             -0.0000
 Octapole moment (field-independent basis, Debye-Ang**2):
  XXX=              0.0000  YYY=             -0.0000  ZZZ=             -1.2836  XYY=             -0.0000
  XXY=             -0.0000  XXZ=             -0.3303  XZZ=             -0.0000  YZZ=             -0.0000
  YYZ=             -1.3606  XYZ=             -0.0000
 Hexadecapole moment (field-independent basis, Debye-Ang**3):
 XXXX=             -5.2648 YYYY=             -5.9937 ZZZZ=             -6.3512 XXXY=             -0.0000
 XXXZ=             -0.0000 YYYX=             -0.0000 YYYZ=             -0.0000 ZZZX=             -0.0000
 ZZZY=             -0.0000 XXYY=             -2.1575 XXZZ=             -1.9903 YYZZ=             -1.7010
 XXYZ=              0.0000 YYXZ=              0.0000 ZZXY=             -0.0000
 N-N= 8.887829661272D+00 E-N=-1.983064876630D+02  KE= 7.574285442054D+01
 Symmetry A1   KE= 6.767106469715D+01
 Symmetry A2   KE= 7.162747443135D-31
 Symmetry B1   KE= 4.589959432278D+00
 Symmetry B2   KE= 3.481830291114D+00
 Calling FoFJK, ICntrl=  10002127 FMM=F ISym2X=1 I1Cent= 0 IOpClX= 0 NMat=1 NMatS=1 NMatT=0.
 ***** Axes restored to original set *****
 -------------------------------------------------------------------
 Center     Atomic                   Forces (Hartrees/Bohr)
 Number     Number              X              Y              Z
 -------------------------------------------------------------------
      1        8           0.012657006   -0.012952997   -0.012353819
      2        1          -0.021304269   -0.001186556   -0.001131668
      3        1           0.008647263    0.014139553    0.013485486
 -------------------------------------------------------------------
 Cartesian Forces:  Max     0.021304269 RMS     0.012444176

 GradGradGradGradGradGradGradGradGradGradGradGradGradGradGradGradGradGrad
 Berny optimization.
 FormGI is forming the generalized inverse of G from B-inverse, IUseBI=4.
 Internal  Forces:  Max     0.021213342 RMS     0.017540093
 Search for a local minimum.
 Step number   1 out of a maximum of   20
 All quantities printed in internal units (Hartrees-Bohrs-Radians)
 Mixed Optimization -- RFO/linear search
 Second derivative matrix not updated -- first step.
 The second derivative matrix:
                          R1        R2        A1
           R1           0.49444
           R2           0.00000   0.49444
           A1           0.00000   0.00000   0.16000
 ITU=  0
     Eigenvalues ---    0.16000   0.49444   0.49444
 RFO step:  Lambda=-1.95483288D-03 EMin= 1.60000000D-01
 Linear search not attempted -- first point.
 Iteration  1 RMS(Cart)=  0.04144666 RMS(Int)=  0.00043194
 Iteration  2 RMS(Cart)=  0.00033544 RMS(Int)=  0.00000010
 Iteration  3 RMS(Cart)=  0.00000010 RMS(Int)=  0.00000000
 ClnCor:  largest displacement from symmetrization is 2.19D-15 for atom     1.
 Variable       Old X    -DE/DX   Delta X   Delta X   Delta X     New X
                                 (Linear)    (Quad)   (Total)
    R1        1.87131  -0.02121   0.00000  -0.04274  -0.04274   1.82857
    R2        1.87131  -0.02121   0.00000  -0.04274  -0.04274   1.82857
    A1        1.82404  -0.00479   0.00000  -0.02958  -0.02958   1.79446
         Item               Value     Threshold  Converged?
 Maximum Force            0.021213     0.000450     NO 
 RMS     Force            0.017540     0.000300     NO 
 Maximum Displacement     0.042181     0.001800     NO 
 RMS     Displacement     0.041303     0.001200     NO 
 Predicted change in Energy=-9.818418D-04
 GradGradGradGradGradGradGradGradGradGradGradGradGradGradGradGradGradGrad

                          Input orientation:                          
 ---------------------------------------------------------------------
 Center     Atomic      Atomic             Coordinates (Angstroms)
 Number     Number       Type             X           Y           Z
 ---------------------------------------------------------------------
      1          8           0       -1.865688    0.291789    0.016365
      2          1           0       -0.899680    0.251140   -0.022404
      3          1           0       -2.134727   -0.380830   -0.625140
 ---------------------------------------------------------------------
                    Distance matrix (angstroms):
                    1          2          3
     1  O    0.000000
     2  H    0.967640   0.000000
     3  H    0.967640   1.512620   0.000000
 Stoichiometry    H2O
 Framework group  C2V[C2(O),SGV(H2)]
 Deg. of freedom     2
 Full point group                 C2V     NOp   4
 Largest Abelian subgroup         C2V     NOp   4
 Largest concise Abelian subgroup C2      NOp   2
                         Standard orientation:                         
 ---------------------------------------------------------------------
 Center     Atomic      Atomic             Coordinates (Angstroms)
 Number     Number       Type             X           Y           Z
 ---------------------------------------------------------------------
      1          8           0        0.000000    0.000000    0.120718
      2          1           0        0.000000    0.756310   -0.482873
      3          1           0       -0.000000   -0.756310   -0.482873
 ---------------------------------------------------------------------
 Rotational constants (GHZ):    774.9288429    438.3314066    279.9693222
 Standard basis: 6-31G(d) (6D, 7F)
 There are    10 symmetry adapted cartesian basis functions of A1  symmetry.
 There are     1 symmetry adapted cartesian basis functions of A2  symmetry.
 There are     3 symmetry adapted cartesian basis functions of B1  symmetry.
 There are     5 symmetry adapted cartesian basis functions of B2  symmetry.
 There are    10 symmetry adapted basis functions of A1  symmetry.
 There are     1 symmetry adapted basis functions of A2  symmetry.
 There are     3 symmetry adapted basis functions of B1  symmetry.
 There are     5 symmetry adapted basis functions of B2  symmetry.
    19 basis functions,    36 primitive gaussians,    19 cartesian basis functions
     5 alpha electrons        5 beta electrons
       nuclear repulsion energy         9.0998284656 Hartrees.
 NAtoms=    3 NActive=    3 NUniq=    2 SFac= 2.25D+00 NAtFMM=   60 NAOKFM=F Big=F
 Integral buffers will be    131072 words long.
 Regular integral format.
 Two-electron integral symmetry is turned on.
 Nuclear repulsion after empirical dispersion term =        9.0995941394 Hartrees.
 One-electron integrals computed using PRISM.
 NBasis=    19 RedAO= T EigKep=  4.22D-02  NBF=    10     1     3     5
 NBsUse=    19 1.00D-06 EigRej= -1.00D+00 NBFU=    10     1     3     5
 Initial guess from the checkpoint file:  "/scratch/kmoore/Gau-3772.chk"
 B after Tr=     0.000000   -0.000000   -0.000000
         Rot=    1.000000   -0.000000   -0.000000    0.000000 Ang=   0.00 deg.
 Initial guess orbital symmetries:
       Occupied  (A1) (A1) (B2) (A1) (B1)
       Virtual   (A1) (A1) (A1) (A1) (A1) (A1) (A1) (A2) (B1) (B1)
                 (B2) (B2) (B2) (B2)
 ExpMin= 1.61D-01 ExpMax= 5.48D+03 ExpMxC= 8.25D+02 IAcc=1 IRadAn=         1 AccDes= 0.00D+00
 Harris functional with IExCor=  419 and IRadAn=       1 diagonalized for initial guess.
 HarFok:  IExCor=  419 AccDes= 0.00D+00 IRadAn=         1 IDoV= 1 UseB2=F ITyADJ=14
 ICtDFT=  3500011 ScaDFX=  1.000000  1.000000  1.000000  1.000000
 FoFCou: FMM=F IPFlag=           0 FMFlag=      100000 FMFlg1=           0
         NFxFlg=           0 DoJE=T BraDBF=F KetDBF=T FulRan=T
         wScrn=  0.000000 ICntrl=     500 IOpCl=  0 I1Cent=   200000004 NGrid=           0
         NMat0=    1 NMatS0=      1 NMatT0=    0 NMatD0=    1 NMtDS0=    0 NMtDT0=    0
 Petite list used in FoFCou.
 Keep R1 ints in memory in symmetry-blocked form, NReq=898557.
 Requested convergence on RMS density matrix=1.00D-08 within 128 cycles.
 Requested convergence on MAX density matrix=1.00D-06.
 Requested convergence on             energy=1.00D-06.
 No special actions if energy rises.
 Integral accuracy reduced to 1.0D-05 until final iterations.
 Initial convergence to 1.0D-05 achieved.  Increase integral accuracy.
 SCF Done:  E(RB2PLYPD3) =  -76.2749167548     A.U. after   10 cycles
            NFock= 10  Conv=0.27D-08     -V/T= 2.0059
 DoSCS=T DFT=T ScalE2(SS,OS)=  0.270000  0.270000
 ExpMin= 1.61D-01 ExpMax= 5.48D+03 ExpMxC= 8.25D+02 IAcc=3 IRadAn=         5 AccDes= 0.00D+00
 HarFok:  IExCor=  205 AccDes= 0.00D+00 IRadAn=         5 IDoV=-2 UseB2=F ITyADJ=14
 ICtDFT= 12500011 ScaDFX=  1.000000  1.000000  1.000000  1.000000
 Range of M.O.s used for correlation:     2    19
 NBasis=    19 NAE=     5 NBE=     5 NFC=     1 NFV=     0
 NROrb=     18 NOA=     4 NOB=     4 NVA=    14 NVB=    14
 DoSCS=T DFT=T ScalE2(SS,OS)=  0.270000  0.270000
 Fully direct method using O(ONN) memory.
 JobTyp=1 Pass  1:  I=   2 to   5 NPSUse=  1 ParTrn=F ParDer=F DoDerP=T.
 Spin components of T(2) and E(2):
     alpha-alpha T2 =       0.8965595105D-02 E2=     -0.7666262934D-02
     alpha-beta  T2 =       0.5437644183D-01 E2=     -0.4500219253D-01
     beta-beta   T2 =       0.8965595105D-02 E2=     -0.7666262934D-02
 E2(B2PLYPD3) =    -0.6033471839D-01 E(B2PLYPD3) =    -0.76335251473211D+02
          IDoAtm=111
          Differentiating once with respect to electric field.
                with respect to dipole field.
          Differentiating once with respect to nuclear coordinates.
 Keep R1 ints in memory in symmetry-blocked form, NReq=878964.
          There are     1 degrees of freedom in the 1st order CPHF.  IDoFFX=0 NUNeed=     1.
 LinEq1:  Iter=  0 NonCon=     1 RMS=2.62D-03 Max=1.27D-02 NDo=     1
 AX will form     1 AO Fock derivatives at one time.
 LinEq1:  Iter=  1 NonCon=     1 RMS=4.63D-04 Max=2.62D-03 NDo=     1
 LinEq1:  Iter=  2 NonCon=     1 RMS=2.07D-04 Max=8.25D-04 NDo=     1
 LinEq1:  Iter=  3 NonCon=     1 RMS=1.79D-05 Max=6.70D-05 NDo=     1
 LinEq1:  Iter=  4 NonCon=     1 RMS=2.90D-06 Max=1.29D-05 NDo=     1
 LinEq1:  Iter=  5 NonCon=     1 RMS=4.18D-07 Max=1.93D-06 NDo=     1
 LinEq1:  Iter=  6 NonCon=     1 RMS=2.35D-08 Max=1.42D-07 NDo=     1
 LinEq1:  Iter=  7 NonCon=     1 RMS=9.76D-10 Max=4.72D-09 NDo=     1
 LinEq1:  Iter=  8 NonCon=     0 RMS=6.86D-11 Max=3.64D-10 NDo=     1
 Linear equations converged to 1.000D-10 1.000D-09 after     8 iterations.
 End of Minotr F.D. properties file   721 does not exist.
 End of Minotr F.D. properties file   722 does not exist.
 End of Minotr F.D. properties file   788 does not exist.
 Calling FoFJK, ICntrl=  10002127 FMM=F ISym2X=1 I1Cent= 0 IOpClX= 0 NMat=1 NMatS=1 NMatT=0.
 ***** Axes restored to original set *****
 -------------------------------------------------------------------
 Center     Atomic                   Forces (Hartrees/Bohr)
 Number     Number              X              Y              Z
 -------------------------------------------------------------------
      1        8           0.001562724   -0.001599269   -0.001525290
      2        1           0.000093421    0.001247258    0.001189563
      3        1          -0.001656145    0.000352011    0.000335727
 -------------------------------------------------------------------
 Cartesian Forces:  Max     0.001656145 RMS     0.001214960

 GradGradGradGradGradGradGradGradGradGradGradGradGradGradGradGradGradGrad
 Berny optimization.
 Using GEDIIS/GDIIS optimizer.
 FormGI is forming the generalized inverse of G from B-inverse, IUseBI=4.
 Internal  Forces:  Max     0.003156288 RMS     0.001822292
 Search for a local minimum.
 Step number   2 out of a maximum of   20
 All quantities printed in internal units (Hartrees-Bohrs-Radians)
 Mixed Optimization -- RFO/linear search
 Update second derivatives using D2CorX and points    1    2
 DE= -9.56D-04 DEPred=-9.82D-04 R= 9.74D-01
 TightC=F SS=  1.41D+00  RLast= 6.73D-02 DXNew= 5.0454D-01 2.0186D-01
 Trust test= 9.74D-01 RLast= 6.73D-02 DXMaxT set to 3.00D-01
 The second derivative matrix:
                          R1        R2        A1
           R1           0.48463
           R2          -0.00980   0.48463
           A1           0.03091   0.03091   0.17933
 ITU=  1  0
 Use linear search instead of GDIIS.
     Eigenvalues ---    0.17300   0.48117   0.49444
 RFO step:  Lambda=-5.20211315D-05 EMin= 1.73000125D-01
 Quartic linear search produced a step of -0.04229.
 Iteration  1 RMS(Cart)=  0.00982362 RMS(Int)=  0.00005968
 Iteration  2 RMS(Cart)=  0.00005434 RMS(Int)=  0.00000000
 Iteration  3 RMS(Cart)=  0.00000000 RMS(Int)=  0.00000000
 ClnCor:  largest displacement from symmetrization is 6.64D-15 for atom     3.
 Variable       Old X    -DE/DX   Delta X   Delta X   Delta X     New X
                                 (Linear)    (Quad)   (Total)
    R1        1.82857  -0.00001   0.00181  -0.00310  -0.00130   1.82728
    R2        1.82857  -0.00001   0.00181  -0.00310  -0.00130   1.82728
    A1        1.79446   0.00316   0.00125   0.01657   0.01782   1.81228
         Item               Value     Threshold  Converged?
 Maximum Force            0.003156     0.000450     NO 
 RMS     Force            0.001822     0.000300     NO 
 Maximum Displacement     0.010029     0.001800     NO 
 RMS     Displacement     0.009796     0.001200     NO 
 Predicted change in Energy=-2.841899D-05
 GradGradGradGradGradGradGradGradGradGradGradGradGradGradGradGradGradGrad

                          Input orientation:                          
 ---------------------------------------------------------------------
 Center     Atomic      Atomic             Coordinates (Angstroms)
 Number     Number       Type             X           Y           Z
 ---------------------------------------------------------------------
      1          8           0       -1.862923    0.288959    0.013665
      2          1           0       -0.897138    0.254564   -0.019139
      3          1           0       -2.140034   -0.381423   -0.625706
 ---------------------------------------------------------------------
                    Distance matrix (angstroms):
                    1          2          3
     1  O    0.000000
     2  H    0.966953   0.000000
     3  H    0.966953   1.522233   0.000000
 Stoichiometry    H2O
 Framework group  C2V[C2(O),SGV(H2)]
 Deg. of freedom     2
 Full point group                 C2V     NOp   4
 Largest Abelian subgroup         C2V     NOp   4
 Largest concise Abelian subgroup C2      NOp   2
                         Standard orientation:                         
 ---------------------------------------------------------------------
 Center     Atomic      Atomic             Coordinates (Angstroms)
 Number     Number       Type             X           Y           Z
 ---------------------------------------------------------------------
      1          8           0        0.000000    0.000000    0.119281
      2          1           0        0.000000    0.761116   -0.477125
      3          1           0       -0.000000   -0.761116   -0.477125
 ---------------------------------------------------------------------
 Rotational constants (GHZ):    793.7119260    432.8126101    280.0828848
 Standard basis: 6-31G(d) (6D, 7F)
 There are    10 symmetry adapted cartesian basis functions of A1  symmetry.
 There are     1 symmetry adapted cartesian basis functions of A2  symmetry.
 There are     3 symmetry adapted cartesian basis functions of B1  symmetry.
 There are     5 symmetry adapted cartesian basis functions of B2  symmetry.
 There are    10 symmetry adapted basis functions of A1  symmetry.
 There are     1 symmetry adapted basis functions of A2  symmetry.
 There are     3 symmetry adapted basis functions of B1  symmetry.
 There are     5 symmetry adapted basis functions of B2  symmetry.
    19 basis functions,    36 primitive gaussians,    19 cartesian basis functions
     5 alpha electrons        5 beta electrons
       nuclear repulsion energy         9.1038308576 Hartrees.
 NAtoms=    3 NActive=    3 NUniq=    2 SFac= 2.25D+00 NAtFMM=   60 NAOKFM=F Big=F
 Integral buffers will be    131072 words long.
 Regular integral format.
 Two-electron integral symmetry is turned on.
 Nuclear repulsion after empirical dispersion term =        9.1035965496 Hartrees.
 One-electron integrals computed using PRISM.
 NBasis=    19 RedAO= T EigKep=  4.22D-02  NBF=    10     1     3     5
 NBsUse=    19 1.00D-06 EigRej= -1.00D+00 NBFU=    10     1     3     5
 Initial guess from the checkpoint file:  "/scratch/kmoore/Gau-3772.chk"
 B after Tr=    -0.000000   -0.000000    0.000000
         Rot=    1.000000   -0.000000   -0.000000   -0.000000 Ang=   0.00 deg.
 Initial guess orbital symmetries:
       Occupied  (A1) (A1) (B2) (A1) (B1)
       Virtual   (A1) (A1) (A1) (A1) (A1) (A1) (A1) (A2) (B1) (B1)
                 (B2) (B2) (B2) (B2)
 Keep R1 ints in memory in symmetry-blocked form, NReq=898557.
 Requested convergence on RMS density matrix=1.00D-08 within 128 cycles.
 Requested convergence on MAX density matrix=1.00D-06.
 Requested convergence on             energy=1.00D-06.
 No special actions if energy rises.
 SCF Done:  E(RB2PLYPD3) =  -76.2749911039     A.U. after    7 cycles
            NFock=  7  Conv=0.62D-08     -V/T= 2.0059
 DoSCS=T DFT=T ScalE2(SS,OS)=  0.270000  0.270000
 ExpMin= 1.61D-01 ExpMax= 5.48D+03 ExpMxC= 8.25D+02 IAcc=3 IRadAn=         5 AccDes= 0.00D+00
 HarFok:  IExCor=  205 AccDes= 0.00D+00 IRadAn=         5 IDoV=-2 UseB2=F ITyADJ=14
 ICtDFT= 12500011 ScaDFX=  1.000000  1.000000  1.000000  1.000000
 Range of M.O.s used for correlation:     2    19
 NBasis=    19 NAE=     5 NBE=     5 NFC=     1 NFV=     0
 NROrb=     18 NOA=     4 NOB=     4 NVA=    14 NVB=    14
 DoSCS=T DFT=T ScalE2(SS,OS)=  0.270000  0.270000
 Fully direct method using O(ONN) memory.
 JobTyp=1 Pass  1:  I=   2 to   5 NPSUse=  1 ParTrn=F ParDer=F DoDerP=T.
 Spin components of T(2) and E(2):
     alpha-alpha T2 =       0.8951121045D-02 E2=     -0.7661597008D-02
     alpha-beta  T2 =       0.5425534785D-01 E2=     -0.4496505326D-01
     beta-beta   T2 =       0.8951121045D-02 E2=     -0.7661597008D-02
 E2(B2PLYPD3) =    -0.6028824728D-01 E(B2PLYPD3) =    -0.76335279351162D+02
          IDoAtm=111
          Differentiating once with respect to electric field.
                with respect to dipole field.
          Differentiating once with respect to nuclear coordinates.
 Keep R1 ints in memory in symmetry-blocked form, NReq=878964.
          There are     1 degrees of freedom in the 1st order CPHF.  IDoFFX=0 NUNeed=     1.
 LinEq1:  Iter=  0 NonCon=     1 RMS=2.61D-03 Max=1.26D-02 NDo=     1
 AX will form     1 AO Fock derivatives at one time.
 LinEq1:  Iter=  1 NonCon=     1 RMS=4.63D-04 Max=2.61D-03 NDo=     1
 LinEq1:  Iter=  2 NonCon=     1 RMS=2.07D-04 Max=8.33D-04 NDo=     1
 LinEq1:  Iter=  3 NonCon=     1 RMS=1.78D-05 Max=6.72D-05 NDo=     1
 LinEq1:  Iter=  4 NonCon=     1 RMS=2.93D-06 Max=1.31D-05 NDo=     1
 LinEq1:  Iter=  5 NonCon=     1 RMS=4.17D-07 Max=1.94D-06 NDo=     1
 LinEq1:  Iter=  6 NonCon=     1 RMS=2.30D-08 Max=1.40D-07 NDo=     1
 LinEq1:  Iter=  7 NonCon=     1 RMS=9.61D-10 Max=4.65D-09 NDo=     1
 LinEq1:  Iter=  8 NonCon=     0 RMS=6.75D-11 Max=3.53D-10 NDo=     1
 Linear equations converged to 1.000D-10 1.000D-09 after     8 iterations.
 End of Minotr F.D. properties file   721 does not exist.
 End of Minotr F.D. properties file   722 does not exist.
 End of Minotr F.D. properties file   788 does not exist.
 Calling FoFJK, ICntrl=  10002127 FMM=F ISym2X=1 I1Cent= 0 IOpClX= 0 NMat=1 NMatS=1 NMatT=0.
 ***** Axes restored to original set *****
 -------------------------------------------------------------------
 Center     Atomic                   Forces (Hartrees/Bohr)
 Number     Number              X              Y              Z
 -------------------------------------------------------------------
      1        8          -0.000072548    0.000074245    0.000070810
      2        1           0.000098106   -0.000005483   -0.000005230
      3        1          -0.000025557   -0.000068761   -0.000065581
 -------------------------------------------------------------------
 Cartesian Forces:  Max     0.000098106 RMS     0.000062498

 GradGradGradGradGradGradGradGradGradGradGradGradGradGradGradGradGradGrad
 Berny optimization.
 Using GEDIIS/GDIIS optimizer.
 FormGI is forming the generalized inverse of G from B-inverse, IUseBI=4.
 Internal  Forces:  Max     0.000098360 RMS     0.000080362
 Search for a local minimum.
 Step number   3 out of a maximum of   20
 All quantities printed in internal units (Hartrees-Bohrs-Radians)
 Mixed Optimization -- En-DIIS/RFO-DIIS
 Update second derivatives using D2CorX and points    1    2    3
 DE= -2.79D-05 DEPred=-2.84D-05 R= 9.81D-01
 TightC=F SS=  1.41D+00  RLast= 1.79D-02 DXNew= 5.0454D-01 5.3733D-02
 Trust test= 9.81D-01 RLast= 1.79D-02 DXMaxT set to 3.00D-01
 The second derivative matrix:
                          R1        R2        A1
           R1           0.48525
           R2          -0.00919   0.48525
           A1           0.02876   0.02876   0.18162
 ITU=  1  1  0
 Use linear search instead of GDIIS.
     Eigenvalues ---    0.17611   0.48157   0.49444
 RFO step:  Lambda=-4.01550189D-08 EMin= 1.76108374D-01
 Quartic linear search produced a step of -0.00614.
 Iteration  1 RMS(Cart)=  0.00013201 RMS(Int)=  0.00000001
 Iteration  2 RMS(Cart)=  0.00000001 RMS(Int)=  0.00000000
 ClnCor:  largest displacement from symmetrization is 8.82D-15 for atom     3.
 Variable       Old X    -DE/DX   Delta X   Delta X   Delta X     New X
                                 (Linear)    (Quad)   (Total)
    R1        1.82728   0.00010   0.00001   0.00020   0.00021   1.82749
    R2        1.82728   0.00010   0.00001   0.00020   0.00021   1.82749
    A1        1.81228  -0.00001  -0.00011   0.00001  -0.00010   1.81218
         Item               Value     Threshold  Converged?
 Maximum Force            0.000098     0.000450     YES
 RMS     Force            0.000080     0.000300     YES
 Maximum Displacement     0.000131     0.001800     YES
 RMS     Displacement     0.000132     0.001200     YES
 Predicted change in Energy=-2.112390D-08
 Optimization completed.
    -- Stationary point found.
                           ----------------------------
                           !   Optimized Parameters   !
                           ! (Angstroms and Degrees)  !
 --------------------------                            --------------------------
 ! Name  Definition              Value          Derivative Info.                !
 --------------------------------------------------------------------------------
 ! R1    R(1,2)                  0.967          -DE/DX =    0.0001              !
 ! R2    R(1,3)                  0.967          -DE/DX =    0.0001              !
 ! A1    A(2,1,3)              103.8359         -DE/DX =    0.0                 !
 --------------------------------------------------------------------------------
 GradGradGradGradGradGradGradGradGradGradGradGradGradGradGradGradGradGrad

                          Input orientation:                          
 ---------------------------------------------------------------------
 Center     Atomic      Atomic             Coordinates (Angstroms)
 Number     Number       Type             X           Y           Z
 ---------------------------------------------------------------------
      1          8           0       -1.862923    0.288959    0.013665
      2          1           0       -0.897138    0.254564   -0.019139
      3          1           0       -2.140034   -0.381423   -0.625706
 ---------------------------------------------------------------------
                    Distance matrix (angstroms):
                    1          2          3
     1  O    0.000000
     2  H    0.966953   0.000000
     3  H    0.966953   1.522233   0.000000
 Stoichiometry    H2O
 Framework group  C2V[C2(O),SGV(H2)]
 Deg. of freedom     2
 Full point group                 C2V     NOp   4
 Largest Abelian subgroup         C2V     NOp   4
 Largest concise Abelian subgroup C2      NOp   2
                         Standard orientation:                         
 ---------------------------------------------------------------------
 Center     Atomic      Atomic             Coordinates (Angstroms)
 Number     Number       Type             X           Y           Z
 ---------------------------------------------------------------------
      1          8           0        0.000000   -0.000000    0.119281
      2          1           0        0.000000    0.761116   -0.477125
      3          1           0       -0.000000   -0.761116   -0.477125
 ---------------------------------------------------------------------
 Rotational constants (GHZ):    793.7119260    432.8126101    280.0828848

 **********************************************************************

            Population analysis using the SCF density.

 **********************************************************************

 Orbital symmetries:
       Occupied  (A1) (A1) (B2) (A1) (B1)
       Virtual   (A1) (B2) (B2) (A1) (A1) (B1) (B2) (A1) (A1) (A2)
                 (B1) (A1) (B2) (A1)
 The electronic state is 1-A1.
 Alpha  occ. eigenvalues --  -19.73330  -1.13891  -0.59401  -0.45486  -0.37738
 Alpha virt. eigenvalues --    0.12206   0.21138   0.87235   0.98264   0.99384
 Alpha virt. eigenvalues --    1.00374   1.19138   1.29132   1.84910   1.86540
 Alpha virt. eigenvalues --    1.89857   2.41700   2.72368   3.72068
          Condensed to atoms (all electrons):
               1          2          3
     1  O    8.308027   0.252683   0.252683
     2  H    0.252683   0.362164  -0.021543
     3  H    0.252683  -0.021543   0.362164
 Mulliken charges:
               1
     1  O   -0.813392
     2  H    0.406696
     3  H    0.406696
 Sum of Mulliken charges =  -0.00000
 Mulliken charges with hydrogens summed into heavy atoms:
               1
     1  O   -0.000000
 Electronic spatial extent (au):  <R**2>=             19.1100
 Charge=             -0.0000 electrons
 Dipole moment (field-independent basis, Debye):
    X=              0.0000    Y=              0.0000    Z=             -2.1595  Tot=              2.1595
 Quadrupole moment (field-independent basis, Debye-Ang):
   XX=             -7.2150   YY=             -4.2153   ZZ=             -5.9747
   XY=              0.0000   XZ=              0.0000   YZ=             -0.0000
 Traceless Quadrupole moment (field-independent basis, Debye-Ang):
   XX=             -1.4134   YY=              1.5864   ZZ=             -0.1730
   XY=              0.0000   XZ=              0.0000   YZ=             -0.0000
 Octapole moment (field-independent basis, Debye-Ang**2):
  XXX=              0.0000  YYY=              0.0000  ZZZ=             -1.3200  XYY=             -0.0000
  XXY=             -0.0000  XXZ=             -0.3486  XZZ=              0.0000  YZZ=              0.0000
  YYZ=             -1.2965  XYZ=             -0.0000
 Hexadecapole moment (field-independent basis, Debye-Ang**3):
 XXXX=             -5.2116 YYYY=             -5.8227 ZZZZ=             -6.2081 XXXY=             -0.0000
 XXXZ=             -0.0000 YYYX=             -0.0000 YYYZ=             -0.0000 ZZZX=             -0.0000
 ZZZY=             -0.0000 XXYY=             -2.0898 XXZZ=             -1.9545 YYZZ=             -1.6725
 XXYZ=             -0.0000 YYXZ=              0.0000 ZZXY=             -0.0000
 N-N= 9.103596549639D+00 E-N=-1.987725030558D+02  KE= 7.582520051170D+01
 Symmetry A1   KE= 6.770034966644D+01
 Symmetry A2   KE= 6.121436721091D-31
 Symmetry B1   KE= 4.585413237669D+00
 Symmetry B2   KE= 3.539437607590D+00
 1\1\GINC-B440\FOpt\RB2PLYPD3-FC\6-31G(d)\H2O1\KMOORE\03-Nov-2019\0\\# 
 b2plypd3 6-31g* Opt\\comment\\0,1\O,-1.8629227264,0.2889592559,0.01366
 54398\H,-0.897138321,0.2545635349,-0.0191392072\H,-2.1400344938,-0.381
 4226719,-0.6257060231\\Version=ES64L-G09RevE.01\State=1-A1\HF=-76.2749
 911\MP2=-76.3352794\RMSD=6.181e-09\RMSF=6.250e-05\Dipole=0.4844524,-0.
 4957816,-0.4728478\PG=C02V [C2(O1),SGV(H2)]\\@


 A MATHEMATICIAN IS A MACHINE FOR TURNING COFFEE INTO THEOREMS.
     -- QUOTED BY PAUL ERDOS
 Job cpu time:       0 days  0 hours  0 minutes  7.8 seconds.
 File lengths (MBytes):  RWF=      5 Int=      0 D2E=      0 Chk=      1 Scr=      1
 Normal termination of Gaussian 09 at Sun Nov  3 09:58:21 2019.
