 Entering Gaussian System, Link 0=g09
 Initial command:
 /soft/gaussian/09-e.01/g09/l1.exe "/scratch/kmoore/Gau-137897.inp" -scrdir="/scratch/kmoore"
 Entering Link 1 = /soft/gaussian/09-e.01/g09/l1.exe PID=    137898.
  
 Copyright (c) 1988,1990,1992,1993,1995,1998,2003,2009,2015,
            Gaussian, Inc.  All Rights Reserved.
  
 This is part of the Gaussian(R) 09 program.  It is based on
 the Gaussian(R) 03 system (copyright 2003, Gaussian, Inc.),
 the Gaussian(R) 98 system (copyright 1998, Gaussian, Inc.),
 the Gaussian(R) 94 system (copyright 1995, Gaussian, Inc.),
 the Gaussian 92(TM) system (copyright 1992, Gaussian, Inc.),
 the Gaussian 90(TM) system (copyright 1990, Gaussian, Inc.),
 the Gaussian 88(TM) system (copyright 1988, Gaussian, Inc.),
 the Gaussian 86(TM) system (copyright 1986, Carnegie Mellon
 University), and the Gaussian 82(TM) system (copyright 1983,
 Carnegie Mellon University). Gaussian is a federally registered
 trademark of Gaussian, Inc.
  
 This software contains proprietary and confidential information,
 including trade secrets, belonging to Gaussian, Inc.
  
 This software is provided under written license and may be
 used, copied, transmitted, or stored only in accord with that
 written license.
  
 The following legend is applicable only to US Government
 contracts under FAR:
  
                    RESTRICTED RIGHTS LEGEND
  
 Use, reproduction and disclosure by the US Government is
 subject to restrictions as set forth in subparagraphs (a)
 and (c) of the Commercial Computer Software - Restricted
 Rights clause in FAR 52.227-19.
  
 Gaussian, Inc.
 340 Quinnipiac St., Bldg. 40, Wallingford CT 06492
  
  
 ---------------------------------------------------------------
 Warning -- This program may not be used in any manner that
 competes with the business of Gaussian, Inc. or will provide
 assistance to any competitor of Gaussian, Inc.  The licensee
 of this program is prohibited from giving any competitor of
 Gaussian, Inc. access to this program.  By using this program,
 the user acknowledges that Gaussian, Inc. is engaged in the
 business of creating and licensing software in the field of
 computational chemistry and represents and warrants to the
 licensee that it is not a competitor of Gaussian, Inc. and that
 it will not use this program in any manner prohibited above.
 ---------------------------------------------------------------
  

 Cite this work as:
 Gaussian 09, Revision E.01,
 M. J. Frisch, G. W. Trucks, H. B. Schlegel, G. E. Scuseria, 
 M. A. Robb, J. R. Cheeseman, G. Scalmani, V. Barone, B. Mennucci, 
 G. A. Petersson, H. Nakatsuji, M. Caricato, X. Li, H. P. Hratchian, 
 A. F. Izmaylov, J. Bloino, G. Zheng, J. L. Sonnenberg, M. Hada, 
 M. Ehara, K. Toyota, R. Fukuda, J. Hasegawa, M. Ishida, T. Nakajima, 
 Y. Honda, O. Kitao, H. Nakai, T. Vreven, J. A. Montgomery, Jr., 
 J. E. Peralta, F. Ogliaro, M. Bearpark, J. J. Heyd, E. Brothers, 
 K. N. Kudin, V. N. Staroverov, T. Keith, R. Kobayashi, J. Normand, 
 K. Raghavachari, A. Rendell, J. C. Burant, S. S. Iyengar, J. Tomasi, 
 M. Cossi, N. Rega, J. M. Millam, M. Klene, J. E. Knox, J. B. Cross, 
 V. Bakken, C. Adamo, J. Jaramillo, R. Gomperts, R. E. Stratmann, 
 O. Yazyev, A. J. Austin, R. Cammi, C. Pomelli, J. W. Ochterski, 
 R. L. Martin, K. Morokuma, V. G. Zakrzewski, G. A. Voth, 
 P. Salvador, J. J. Dannenberg, S. Dapprich, A. D. Daniels, 
 O. Farkas, J. B. Foresman, J. V. Ortiz, J. Cioslowski, 
 and D. J. Fox, Gaussian, Inc., Wallingford CT, 2013.
 
 ******************************************
 Gaussian 09:  ES64L-G09RevE.01 30-Nov-2015
                17-Oct-2019 
 ******************************************
 %mem=20GB
 %NProcShared=10
 Will use up to   10 processors via shared memory.
 -------------------------------------------
 #P wb97xd/6-31g* # SCF=(qc) # int=ultrafine
 -------------------------------------------
 1/38=1/1;
 2/12=2,17=6,18=5,40=1/2;
 3/5=1,6=6,7=1,11=2,16=1,25=1,30=1,74=-58,75=-5/1,2,3;
 4//1;
 5/5=2,8=3,38=5/8;
 6/7=2,8=2,9=2,10=2,28=1/1;
 99/5=1,9=1/99;
 Leave Link    1 at Thu Oct 17 23:15:23 2019, MaxMem=  2684354560 cpu:         0.3
 (Enter /soft/gaussian/09-e.01/g09/l101.exe)
 --------
 comment:
 --------
 Symbolic Z-matrix:
 Charge =  0 Multiplicity = 3
 C                    -0.0017   -0.00462  -0.1297 
 H                     0.42127   1.00451  -0.2784 
 H                     0.6894   -0.83705  -0.20678 
 H                    -1.08894  -0.14128  -0.23937 
 H                    -0.00151   0.0289    2.27007 
 
 NAtoms=      5 NQM=        5 NQMF=       0 NMMI=      0 NMMIF=      0
                NMic=       0 NMicF=      0.
                    Isotopes and Nuclear Properties:
 (Nuclear quadrupole moments (NQMom) in fm**2, nuclear magnetic moments (NMagM)
  in nuclear magnetons)

  Atom         1           2           3           4           5
 IAtWgt=          12           1           1           1           1
 AtmWgt=  12.0000000   1.0078250   1.0078250   1.0078250   1.0078250
 NucSpn=           0           1           1           1           1
 AtZEff=   0.0000000   0.0000000   0.0000000   0.0000000   0.0000000
 NQMom=    0.0000000   0.0000000   0.0000000   0.0000000   0.0000000
 NMagM=    0.0000000   2.7928460   2.7928460   2.7928460   2.7928460
 AtZNuc=   6.0000000   1.0000000   1.0000000   1.0000000   1.0000000
 Leave Link  101 at Thu Oct 17 23:15:23 2019, MaxMem=  2684354560 cpu:         0.6
 (Enter /soft/gaussian/09-e.01/g09/l202.exe)
                          Input orientation:                          
 ---------------------------------------------------------------------
 Center     Atomic      Atomic             Coordinates (Angstroms)
 Number     Number       Type             X           Y           Z
 ---------------------------------------------------------------------
      1          6           0       -0.001697   -0.004622   -0.129697
      2          1           0        0.421273    1.004510   -0.278398
      3          1           0        0.689404   -0.837050   -0.206784
      4          1           0       -1.088941   -0.141277   -0.239365
      5          1           0       -0.001515    0.028899    2.270069
 ---------------------------------------------------------------------
                    Distance matrix (angstroms):
                    1          2          3          4          5
     1  C    0.000000
     2  H    1.104248   0.000000
     3  H    1.084665   1.862355   0.000000
     4  H    1.101273   1.896075   1.909888   0.000000
     5  H    2.400000   2.761385   2.713307   2.740204   0.000000
 Stoichiometry    CH4(3)
 Framework group  C1[X(CH4)]
 Deg. of freedom     9
 Full point group                 C1      NOp   1
 Largest Abelian subgroup         C1      NOp   1
 Largest concise Abelian subgroup C1      NOp   1
                         Standard orientation:                         
 ---------------------------------------------------------------------
 Center     Atomic      Atomic             Coordinates (Angstroms)
 Number     Number       Type             X           Y           Z
 ---------------------------------------------------------------------
      1          6           0        0.206418    0.002816   -0.007679
      2          1           0        0.356930   -0.419344    1.001524
      3          1           0        0.282619   -0.688835   -0.839731
      4          1           0        0.315237    1.090027   -0.145281
      5          1           0       -2.193293    0.001254    0.029563
 ---------------------------------------------------------------------
 Rotational constants (GHZ):    140.4903093     69.0537860     68.0433618
 Leave Link  202 at Thu Oct 17 23:15:23 2019, MaxMem=  2684354560 cpu:         0.1
 (Enter /soft/gaussian/09-e.01/g09/l301.exe)
 Standard basis: 6-31G(d) (6D, 7F)
 Ernie: Thresh=  0.10000D-02 Tol=  0.10000D-05 Strict=F.
 There are    23 symmetry adapted cartesian basis functions of A   symmetry.
 There are    23 symmetry adapted basis functions of A   symmetry.
    23 basis functions,    44 primitive gaussians,    23 cartesian basis functions
     6 alpha electrons        4 beta electrons
       nuclear repulsion energy        11.4286608340 Hartrees.
 IExCor= 4639 DFT=T Ex+Corr=wB97XD ExCW=0 ScaHFX=  1.000000
 ScaDFX=  1.000000  1.000000  1.000000  1.000000 ScalE2=  1.000000  1.000000
 IRadAn=      5 IRanWt=     -1 IRanGd=            0 ICorTp=0 IEmpDi=121
  HFx wShort=  0.000000 wLong=  0.200000 cFull=  0.222036 cShort=  0.000000 cLong=  0.777964
  DFx wShort=  0.000000 wLong=  0.200000 cFull=  0.000000 cShort=  0.000000 cLong=  1.000000
 NAtoms=    5 NActive=    5 NUniq=    5 SFac= 1.00D+00 NAtFMM=   60 NAOKFM=F Big=F
 Integral buffers will be    131072 words long.
 Raffenetti 2 integral format.
 Two-electron integral symmetry is turned on.
 R6Disp:  Grimme-D2 Dispersion energy=       -0.0007188399 Hartrees.
 Nuclear repulsion after empirical dispersion term =       11.4279419941 Hartrees.
 Leave Link  301 at Thu Oct 17 23:15:23 2019, MaxMem=  2684354560 cpu:         0.5
 (Enter /soft/gaussian/09-e.01/g09/l302.exe)
 NPDir=0 NMtPBC=     1 NCelOv=     1 NCel=       1 NClECP=     1 NCelD=      1
         NCelK=      1 NCelE2=     1 NClLst=     1 CellRange=     0.0.
 One-electron integrals computed using PRISM.
 NBasis=    23 RedAO= T EigKep=  2.75D-02  NBF=    23
 NBsUse=    23 1.00D-06 EigRej= -1.00D+00 NBFU=    23
 Precomputing XC quadrature grid using
 IXCGrd= 4 IRadAn=           5 IRanWt=          -1 IRanGd=           0 AccXCQ= 0.00D+00.
 Generated NRdTot=       0 NPtTot=           0 NUsed=           0 NTot=          32
 NSgBfM=    23    23    23    23    23 MxSgAt=     5 MxSgA2=     5.
 Leave Link  302 at Thu Oct 17 23:15:24 2019, MaxMem=  2684354560 cpu:         1.6
 (Enter /soft/gaussian/09-e.01/g09/l303.exe)
 DipDrv:  MaxL=1.
 Leave Link  303 at Thu Oct 17 23:15:24 2019, MaxMem=  2684354560 cpu:         0.2
 (Enter /soft/gaussian/09-e.01/g09/l401.exe)
 ExpMin= 1.61D-01 ExpMax= 3.05D+03 ExpMxC= 4.57D+02 IAcc=3 IRadAn=         5 AccDes= 0.00D+00
 Harris functional with IExCor= 4639 and IRadAn=       5 diagonalized for initial guess.
 HarFok:  IExCor= 4639 AccDes= 0.00D+00 IRadAn=         5 IDoV= 1 UseB2=F ITyADJ=14
 ICtDFT=  3500011 ScaDFX=  1.000000  1.000000  1.000000  1.000000
 FoFCou: FMM=F IPFlag=           0 FMFlag=      100000 FMFlg1=           0
         NFxFlg=           0 DoJE=T BraDBF=F KetDBF=T FulRan=T
         wScrn=  0.000000 ICntrl=     500 IOpCl=  0 I1Cent=   200000004 NGrid=           0
         NMat0=    1 NMatS0=      1 NMatT0=    0 NMatD0=    1 NMtDS0=    0 NMtDT0=    0
 Petite list used in FoFCou.
 Harris En= -38.0180105098662    
 JPrj=0 DoOrth=F DoCkMO=F.
 Initial guess <Sx>= 0.0000 <Sy>= 0.0000 <Sz>= 1.0000 <S**2>= 2.0000 S= 1.0000
 Leave Link  401 at Thu Oct 17 23:15:24 2019, MaxMem=  2684354560 cpu:         2.1
 (Enter /soft/gaussian/09-e.01/g09/l508.exe)
 Direct SCF.
 Tight linear equation convergence will be used.
 UwB97XD wavefunction.
 Quadratic Convergence SCF Method.
 Line search only if initial step raises energy.
 Integral symmetry usage will be decided dynamically.
 ReadGW:  IGet=1 IStart=         402 Next=         402 LGW=           0.
 Keep R1 and R2 ints in memory in canonical form, NReq=1020445.
 FoFCou: FMM=F IPFlag=           0 FMFlag=           0 FMFlg1=           0
         NFxFlg=           0 DoJE=F BraDBF=F KetDBF=F FulRan=T
         wScrn=  0.000000 ICntrl=     600 IOpCl=  0 I1Cent=           0 NGrid=           0
         NMat0=    1 NMatS0=    276 NMatT0=    0 NMatD0=    1 NMtDS0=    0 NMtDT0=    0
 Symmetry not used in FoFCou.
 Iteration   1 EE= -40.2921190026995                                    Grad=2.767D-01 Max rot=    9.4389 deg.
 Gradient too large for Newton-Raphson -- use scaled steepest descent instead.
 Alpha Gap=     0.493 HL deriv= 7.65D-03
  Beta Gap=     0.539 HL deriv= 1.04D-03
     ILin= 1 X=0.000D+00 Y=-4.029211900270D+01 DE= 0.00D+00 F= -2.90D-02
     ILin= 2 X=3.000D-01 Y=-4.029949871803D+01 DE=-7.38D-03 F= -2.02D-02
     ILin= 3 X=6.000D-01 Y=-4.030426177971D+01 DE=-1.21D-02 F= -1.15D-02
     ILin= 4 X=1.100D+00 Y=-4.030637785554D+01 DE=-1.43D-02 F=  3.05D-03
     Accept linear search using points  3 and  4.
     An  expanding polynomial of degree  4 produced  0.8922
 Iteration   2 EE= -40.3063824571352     Delta-E=       -0.014263454436 Grad=4.916D-02 Max rot=    1.2005 deg.
 Gradient too large for Newton-Raphson -- use scaled steepest descent instead.
 Alpha Gap=     0.498 HL deriv= 2.24D-03
  Beta Gap=     0.584 HL deriv= 5.08D-04
     ILin= 1 X=0.000D+00 Y=-4.030638245714D+01 DE= 0.00D+00 F= -2.42D-03
     ILin= 2 X=5.000D-01 Y=-4.030725765695D+01 DE=-8.75D-04 F= -1.08D-03
     ILin= 3 X=1.000D+00 Y=-4.030746114172D+01 DE=-1.08D-03 F=  2.65D-04
     Accept linear search using points  2 and  3.
     An  expanding polynomial of degree  3 produced  0.7947
 Iteration   3 EE= -40.3074589211496     Delta-E=       -0.001076464014 Grad=1.452D-02 Max rot=    0.2601 deg.
 Gradient too large for Newton-Raphson -- use scaled steepest descent instead.
 Alpha Gap=     0.496 HL deriv= 4.90D-04
  Beta Gap=     0.604 HL deriv= 2.27D-04
     ILin= 1 X=0.000D+00 Y=-4.030745892115D+01 DE= 0.00D+00 F= -3.53D-04
     ILin= 2 X=8.000D-01 Y=-4.030763754394D+01 DE=-1.79D-04 F= -9.35D-05
     Reject lnstep minimum 1.860D+00 FVal=-4.030773393803D+01 Lims=  0.00D+00  8.00D-01
     ILin= 3 X=1.700D+00 Y=-4.030759033735D+01 DE=-1.31D-04 F=  1.98D-04
     An  expanding polynomial of degree  3 produced  1.0883
 Iteration   4 EE= -40.3076510280587     Delta-E=       -0.000192106909 Grad=6.999D-03 Max rot=    0.1393 deg.
 QCNR:  CnvC1=1.33D-09 CnvC2=1.33D-08
 LinEq1:  Iter=  0 NonCon=     1 RMS=4.76D-04 Max=3.27D-03 NDo=     1
 AX will form     1 AO Fock derivatives at one time.
 LinEq1:  Iter=  1 NonCon=     1 RMS=2.46D-04 Max=1.71D-03 NDo=     1
 LinEq1:  Iter=  2 NonCon=     1 RMS=2.20D-05 Max=1.20D-04 NDo=     1
 LinEq1:  Iter=  3 NonCon=     1 RMS=1.87D-06 Max=1.37D-05 NDo=     1
 LinEq1:  Iter=  4 NonCon=     1 RMS=3.45D-07 Max=2.44D-06 NDo=     1
 LinEq1:  Iter=  5 NonCon=     1 RMS=5.54D-08 Max=3.05D-07 NDo=     1
 LinEq1:  Iter=  6 NonCon=     1 RMS=8.47D-09 Max=3.12D-08 NDo=     1
 LinEq1:  Iter=  7 NonCon=     0 RMS=1.21D-09 Max=5.34D-09 NDo=     1
 Linear equations converged to 1.334D-09 1.334D-08 after     7 iterations.
 Angle between quadratic step and gradient=  38.11 degrees.
     ILin= 1 X=0.000D+00 Y=-4.030765102806D+01 DE= 0.00D+00 F= -8.27D-05
     ILin= 2 X=1.000D+00 Y=-4.030769235569D+01 DE=-4.13D-05 F=  1.02D-08
     Accept linear search using points  1 and  2.
     An  expanding polynomial of degree  2 produced  0.9999
     Minimum is close to point  2 DX= -1.23D-04 DF= -6.25D-13 DXR=  1.23D-04 DFR=  1.51D-08 which will be used.
 Iteration   5 EE= -40.3076923556872     Delta-E=       -0.000041327628 Grad=1.417D-05 Max rot=    0.0007 deg.
 QCNR:  CnvC1=1.42D-10 CnvC2=1.42D-09
 LinEq1:  Iter=  0 NonCon=     1 RMS=5.53D-07 Max=5.60D-06 NDo=     1
 LinEq1:  Iter=  1 NonCon=     1 RMS=9.11D-08 Max=9.66D-07 NDo=     1
 LinEq1:  Iter=  2 NonCon=     1 RMS=3.27D-08 Max=1.56D-07 NDo=     1
 LinEq1:  Iter=  3 NonCon=     1 RMS=6.01D-09 Max=3.24D-08 NDo=     1
 LinEq1:  Iter=  4 NonCon=     1 RMS=8.37D-10 Max=5.08D-09 NDo=     1
 LinEq1:  Iter=  5 NonCon=     1 RMS=1.86D-10 Max=8.12D-10 NDo=     1
 LinEq1:  Iter=  6 NonCon=     0 RMS=3.38D-11 Max=1.48D-10 NDo=     1
 Linear equations converged to 1.417D-10 1.417D-09 after     6 iterations.
 Angle between quadratic step and gradient=  22.02 degrees.
     ILin= 1 X=0.000D+00 Y=-4.030769235569D+01 DE= 0.00D+00 F= -2.63D-10
     ILin= 2 X=1.000D+00 Y=-4.030769235582D+01 DE=-1.32D-10
 Iteration   6 EE= -40.3076923558190     Delta-E=       -0.000000000132 Grad=5.576D-09 Max rot=    0.0000 deg.
 Rotation gradient small -- convergence achieved.
 SCF Done:  E(UwB97XD) =  -40.3076923558     a.u. after    6 cycles
            Convg  =    0.5576D-08                    26 Fock formations.
              S**2 =  2.0043                  -V/T =  2.0089
 <Sx>= 0.0000 <Sy>= 0.0000 <Sz>= 1.0000 <S**2>= 2.0043 S= 1.0014
 <L.S>= 0.000000000000E+00
 Annihilation of the first spin contaminant:
 S**2 before annihilation     2.0043,   after     2.0000
 Leave Link  508 at Thu Oct 17 23:15:26 2019, MaxMem=  2684354560 cpu:        20.3
 (Enter /soft/gaussian/09-e.01/g09/l601.exe)
 Copying SCF densities to generalized density rwf, IOpCl= 1 IROHF=0.

 **********************************************************************

            Population analysis using the SCF density.

 **********************************************************************

 Orbital symmetries:
 Alpha Orbitals:
       Occupied  (A) (A) (A) (A) (A) (A)
       Virtual   (A) (A) (A) (A) (A) (A) (A) (A) (A) (A) (A) (A)
                 (A) (A) (A) (A) (A)
 Beta  Orbitals:
       Occupied  (A) (A) (A) (A)
       Virtual   (A) (A) (A) (A) (A) (A) (A) (A) (A) (A) (A) (A)
                 (A) (A) (A) (A) (A) (A) (A)
 The electronic state is 3-A.
 Alpha  occ. eigenvalues --  -10.30143  -0.77741  -0.50276  -0.49292  -0.40596
 Alpha  occ. eigenvalues --   -0.28551
 Alpha virt. eigenvalues --    0.19618   0.25834   0.26537   0.63000   0.64123
 Alpha virt. eigenvalues --    0.65833   0.75621   0.93176   0.99132   1.00666
 Alpha virt. eigenvalues --    1.05461   1.72960   1.73342   2.07199   2.24971
 Alpha virt. eigenvalues --    2.28484   4.17813
  Beta  occ. eigenvalues --  -10.28923  -0.73047  -0.48967  -0.47973
  Beta virt. eigenvalues --    0.01840   0.21275   0.26725   0.27405   0.39603
  Beta virt. eigenvalues --    0.63737   0.64857   0.73597   0.87651   1.00162
  Beta virt. eigenvalues --    1.01752   1.08713   1.45524   1.80594   1.81083
  Beta virt. eigenvalues --    2.16223   2.26863   2.30365   4.23491
          Condensed to atoms (all electrons):
               1          2          3          4          5
     1  C    5.460166   0.375192   0.377805   0.376682  -0.051077
     2  H    0.375192   0.504226  -0.029166  -0.026690   0.000771
     3  H    0.377805  -0.029166   0.492758  -0.024646   0.000672
     4  H    0.376682  -0.026690  -0.024646   0.493574   0.000656
     5  H   -0.051077   0.000771   0.000672   0.000656   1.048878
          Atomic-Atomic Spin Densities.
               1          2          3          4          5
     1  C    1.233195  -0.011641  -0.011877  -0.011615  -0.050947
     2  H   -0.011641  -0.042053   0.001806   0.001633   0.000800
     3  H   -0.011877   0.001806  -0.040598   0.001502   0.000696
     4  H   -0.011615   0.001633   0.001502  -0.041455   0.000664
     5  H   -0.050947   0.000800   0.000696   0.000664   1.048868
 Mulliken charges and spin densities:
               1          2
     1  C   -0.538768   1.147116
     2  H    0.175668  -0.049454
     3  H    0.182577  -0.048472
     4  H    0.180424  -0.049270
     5  H    0.000099   1.000081
 Sum of Mulliken charges =   0.00000   2.00000
 Mulliken charges and spin densities with hydrogens summed into heavy atoms:
               1          2
     1  C    0.000000   2.000000
 Electronic spatial extent (au):  <R**2>=             51.8911
 Charge=              0.0000 electrons
 Dipole moment (field-independent basis, Debye):
    X=              0.2653    Y=             -0.0103    Z=             -0.0079  Tot=              0.2656
 Quadrupole moment (field-independent basis, Debye-Ang):
   XX=            -10.2857   YY=             -8.1880   ZZ=             -8.3718
   XY=              0.0014   XZ=              0.0677   YZ=              0.0254
 Traceless Quadrupole moment (field-independent basis, Debye-Ang):
   XX=             -1.3372   YY=              0.7605   ZZ=              0.5767
   XY=              0.0014   XZ=              0.0677   YZ=              0.0254
 Octapole moment (field-independent basis, Debye-Ang**2):
  XXX=              3.9234  YYY=              0.7887  ZZZ=              0.2824  XYY=              1.3189
  XXY=             -0.0145  XXZ=             -0.0037  XZZ=              1.2856  YZZ=             -0.8115
  YYZ=             -0.3892  XYZ=             -0.0259
 Hexadecapole moment (field-independent basis, Debye-Ang**3):
 XXXX=            -55.3231 YYYY=            -15.3663 ZZZZ=            -15.3646 XXXY=             -0.0038
 XXXZ=              0.1906 YYYX=              0.3047 YYYZ=              0.0751 ZZZX=              0.3249
 ZZZY=              0.0302 XXYY=            -11.2852 XXZZ=            -11.2348 YYZZ=             -5.1145
 XXYZ=             -0.0060 YYXZ=             -0.0658 ZZXY=             -0.2918
 N-N= 1.142794199414D+01 E-N=-1.156517430024D+02  KE= 3.995346666148D+01
                          Isotropic Fermi Contact Couplings
        Atom                 a.u.       MegaHertz       Gauss      10(-4) cm-1
     1  C(13)              0.12394      69.66774      24.85918      23.23866
     2  H(1)              -0.01510     -33.74843     -12.04228     -11.25726
     3  H(1)              -0.01477     -33.00836     -11.77820     -11.01040
     4  H(1)              -0.01509     -33.73088     -12.03602     -11.25141
     5  H(1)               0.30607     684.04245     244.08335     228.17200
 --------------------------------------------------------
       Center         ----  Spin Dipole Couplings  ----
                      3XX-RR        3YY-RR        3ZZ-RR
 --------------------------------------------------------
     1   Atom        1.115158     -0.560198     -0.554960
     2   Atom        0.002328     -0.055967      0.053639
     3   Atom        0.001856     -0.015598      0.013742
     4   Atom        0.001134      0.075919     -0.077053
     5   Atom        0.027304     -0.013666     -0.013638
 --------------------------------------------------------
                        XY            XZ            YZ
 --------------------------------------------------------
     1   Atom       -0.003810     -0.065513     -0.001081
     2   Atom       -0.009759      0.020223     -0.055571
     3   Atom       -0.009717     -0.014322      0.079775
     4   Atom        0.018764     -0.005098     -0.019508
     5   Atom        0.000054     -0.000404     -0.000007
 --------------------------------------------------------


 ---------------------------------------------------------------------------------
              Anisotropic Spin Dipole Couplings in Principal Axis System
 ---------------------------------------------------------------------------------

       Atom             a.u.   MegaHertz   Gauss  10(-4) cm-1        Axes

              Baa    -0.5607   -75.239   -26.847   -25.097  0.0163  0.9319  0.3624
     1 C(13)  Bbb    -0.5570   -74.750   -26.673   -24.934  0.0357 -0.3627  0.9312
              Bcc     1.1177   149.989    53.520    50.031  0.9992 -0.0022 -0.0391
 
              Baa    -0.0792   -42.273   -15.084   -14.101  0.0153  0.9233  0.3838
     2 H(1)   Bbb    -0.0039    -2.069    -0.738    -0.690  0.9634  0.0891 -0.2527
              Bcc     0.0831    44.343    15.823    14.791  0.2675 -0.3737  0.8882
 
              Baa    -0.0821   -43.792   -15.626   -14.607 -0.0207  0.7668 -0.6415
     3 H(1)   Bbb    -0.0017    -0.923    -0.329    -0.308  0.9784  0.1476  0.1448
              Bcc     0.0838    44.714    15.955    14.915 -0.2057  0.6247  0.7533
 
              Baa    -0.0796   -42.469   -15.154   -14.166  0.0347  0.1203  0.9921
     4 H(1)   Bbb    -0.0033    -1.764    -0.630    -0.589  0.9727 -0.2318 -0.0059
              Bcc     0.0829    44.233    15.784    14.755  0.2293  0.9653 -0.1250
 
              Baa    -0.0137    -7.293    -2.602    -2.433  0.0012  0.9675  0.2530
     5 H(1)   Bbb    -0.0136    -7.278    -2.597    -2.428  0.0099 -0.2530  0.9674
              Bcc     0.0273    14.570     5.199     4.860  1.0000  0.0013 -0.0099
 

 ---------------------------------------------------------------------------------

 No NMR shielding tensors so no spin-rotation constants.
 Leave Link  601 at Thu Oct 17 23:15:26 2019, MaxMem=  2684354560 cpu:         2.6
 (Enter /soft/gaussian/09-e.01/g09/l9999.exe)
 1\1\GINC-B459\SP\UwB97XD\6-31G(d)\C1H4(3)\KMOORE\17-Oct-2019\0\\#P wb9
 7xd/6-31g* # SCF=(qc) # int=ultrafine\\comment:\\0,3\C,0,-0.0016970714
 ,-0.0046223633,-0.1296971103\H,0,0.4212732453,1.0045101837,-0.27839750
 48\H,0,0.6894036532,-0.8370504558,-0.2067839477\H,0,-1.0889414722,-0.1
 412770961,-0.2393653909\H,0,-0.0015145053,0.0288994279,2.2700687962\\V
 ersion=ES64L-G09RevE.01\State=3-A\HF=-40.3076924\S2=2.004335\S2-1=0.\S
 2A=2.000008\RMSD=0.000e+00\Dipole=0.0041187,-0.0029374,-0.1043828\Quad
 rupole=0.565377,0.428973,-0.99435,-0.0189843,0.001901,-0.0481628\PG=C0
 1 [X(C1H4)]\\@


 NATURE WILL TELL YOU A DIRECT LIE IF SHE CAN.

                                -- CHARLES DARWIN
 Job cpu time:       0 days  0 hours  0 minutes 28.8 seconds.
 File lengths (MBytes):  RWF=      5 Int=      0 D2E=      0 Chk=      1 Scr=      1
 Normal termination of Gaussian 09 at Thu Oct 17 23:15:26 2019.
