 Entering Gaussian System, Link 0=g09
 Input=geom.com
 Output=geom.log
 Initial command:
 /soft/gaussian/09-e.01/g09/l1.exe "/lcrc/project/CMRP/mechanisms/1_Abst/1_OH/NH3/3_VTST_C/Gau-61247.inp" -scrdir="/lcrc/project/CMRP/mechanisms/1_Abst/1_OH/NH3/3_VTST_C/"
 Entering Link 1 = /soft/gaussian/09-e.01/g09/l1.exe PID=     61248.
  
 Copyright (c) 1988,1990,1992,1993,1995,1998,2003,2009,2015,
            Gaussian, Inc.  All Rights Reserved.
  
 This is part of the Gaussian(R) 09 program.  It is based on
 the Gaussian(R) 03 system (copyright 2003, Gaussian, Inc.),
 the Gaussian(R) 98 system (copyright 1998, Gaussian, Inc.),
 the Gaussian(R) 94 system (copyright 1995, Gaussian, Inc.),
 the Gaussian 92(TM) system (copyright 1992, Gaussian, Inc.),
 the Gaussian 90(TM) system (copyright 1990, Gaussian, Inc.),
 the Gaussian 88(TM) system (copyright 1988, Gaussian, Inc.),
 the Gaussian 86(TM) system (copyright 1986, Carnegie Mellon
 University), and the Gaussian 82(TM) system (copyright 1983,
 Carnegie Mellon University). Gaussian is a federally registered
 trademark of Gaussian, Inc.
  
 This software contains proprietary and confidential information,
 including trade secrets, belonging to Gaussian, Inc.
  
 This software is provided under written license and may be
 used, copied, transmitted, or stored only in accord with that
 written license.
  
 The following legend is applicable only to US Government
 contracts under FAR:
  
                    RESTRICTED RIGHTS LEGEND
  
 Use, reproduction and disclosure by the US Government is
 subject to restrictions as set forth in subparagraphs (a)
 and (c) of the Commercial Computer Software - Restricted
 Rights clause in FAR 52.227-19.
  
 Gaussian, Inc.
 340 Quinnipiac St., Bldg. 40, Wallingford CT 06492
  
  
 ---------------------------------------------------------------
 Warning -- This program may not be used in any manner that
 competes with the business of Gaussian, Inc. or will provide
 assistance to any competitor of Gaussian, Inc.  The licensee
 of this program is prohibited from giving any competitor of
 Gaussian, Inc. access to this program.  By using this program,
 the user acknowledges that Gaussian, Inc. is engaged in the
 business of creating and licensing software in the field of
 computational chemistry and represents and warrants to the
 licensee that it is not a competitor of Gaussian, Inc. and that
 it will not use this program in any manner prohibited above.
 ---------------------------------------------------------------
  

 Cite this work as:
 Gaussian 09, Revision E.01,
 M. J. Frisch, G. W. Trucks, H. B. Schlegel, G. E. Scuseria, 
 M. A. Robb, J. R. Cheeseman, G. Scalmani, V. Barone, B. Mennucci, 
 G. A. Petersson, H. Nakatsuji, M. Caricato, X. Li, H. P. Hratchian, 
 A. F. Izmaylov, J. Bloino, G. Zheng, J. L. Sonnenberg, M. Hada, 
 M. Ehara, K. Toyota, R. Fukuda, J. Hasegawa, M. Ishida, T. Nakajima, 
 Y. Honda, O. Kitao, H. Nakai, T. Vreven, J. A. Montgomery, Jr., 
 J. E. Peralta, F. Ogliaro, M. Bearpark, J. J. Heyd, E. Brothers, 
 K. N. Kudin, V. N. Staroverov, T. Keith, R. Kobayashi, J. Normand, 
 K. Raghavachari, A. Rendell, J. C. Burant, S. S. Iyengar, J. Tomasi, 
 M. Cossi, N. Rega, J. M. Millam, M. Klene, J. E. Knox, J. B. Cross, 
 V. Bakken, C. Adamo, J. Jaramillo, R. Gomperts, R. E. Stratmann, 
 O. Yazyev, A. J. Austin, R. Cammi, C. Pomelli, J. W. Ochterski, 
 R. L. Martin, K. Morokuma, V. G. Zakrzewski, G. A. Voth, 
 P. Salvador, J. J. Dannenberg, S. Dapprich, A. D. Daniels, 
 O. Farkas, J. B. Foresman, J. V. Ortiz, J. Cioslowski, 
 and D. J. Fox, Gaussian, Inc., Wallingford CT, 2013.
 
 ******************************************
 Gaussian 09:  ES64L-G09RevE.01 30-Nov-2015
                26-Feb-2019 
 ******************************************
 %mem=1000MW
 %chk=tmp
 %NProcShared= 10
 Will use up to   10 processors via shared memory.
 ----------------------------------------------------------------------
 #b2plypd3/cc-pvtz irc(reverse,calcall,stepsize=3,maxpoints=10) # int=u
 ltrafine nosym iop(7/33=1)
 ----------------------------------------------------------------------
 1/10=4,18=10,22=2,38=1,39=3,42=10,44=3,71=1/1,23;
 2/12=2,15=1,17=6,18=5,29=1,40=1/2;
 3/5=16,6=1,11=9,16=1,25=1,30=1,71=2,74=-60,75=-5,140=1/1,2,3;
 4//1;
 5/5=2,38=5/2;
 8/6=3,8=1,10=1,19=11,30=-1/1;
 9/15=3,16=-3/6;
 11/6=1,8=1,15=11,17=12,24=-1,27=1,28=-2,29=300,31=1,32=6,42=3/1,2,10;
 10/6=2,21=1,31=1/2;
 8/6=4,8=1,10=1,19=11,30=-1/11,4;
 10/5=1,20=4,31=1/2;
 11/12=2,14=11,16=1,17=2,28=-2,31=1,42=3/2,10,12;
 6/7=2,8=2,9=2,10=2,18=1/1;
 7/10=1,12=2,25=1,30=1,33=1,44=2/1,2,3,16;
 1/10=4,18=10,22=2,39=3,42=10,44=3,71=1/23(2);
 2/15=1,29=1/2;
 99/5=20/99;
 2/15=1,29=1/2;
 3/5=16,6=1,11=9,16=1,25=1,30=1,71=2,74=-60,75=-5,140=1/1,2,3;
 4/5=5,16=3,69=1/1;
 5/5=2,38=5/2;
 8/6=3,8=1,10=1,19=11,30=-1/1;
 9/15=3,16=-3/6;
 11/6=1,8=1,15=11,17=12,24=-1,27=1,28=-2,29=300,31=1,32=6,42=3/1,2,10;
 10/6=2,21=1,31=1/2;
 8/6=4,8=1,10=1,19=11,30=-1/11,4;
 10/5=1,20=4,31=1/2;
 11/12=2,14=11,16=1,17=2,28=-2,31=1,42=3/2,10,12;
 7/10=1,12=2,25=1,30=1,33=1,44=2/1,2,3,16;
 1/10=4,18=10,22=2,39=3,42=10,44=3,71=1/23(-12);
 2/15=1,29=1/2;
 6/7=2,8=2,9=2,10=2,18=1/1;
 99/5=20/99;
 ------
 geom 0
 ------
 Symbolic Z-matrix:
 Charge =  0 Multiplicity = 2
 n1
 h2                   n1   R1
 h3                   n1   R2       h2   A2
 h4                   n1   R3       h2   A3       h3   D3       0
 X111                 4     2.       1     90.      2     180.     0
 O99                  4    rts      5    aabs1    1    babs1    0
 H100                 O99  R101     4    aabs2    5    babs2    0
       Variables:
  R1                    1.0154                   
  R2                    1.0158                   
  A2                  106.8385                   
  R3                    1.118                    
  A3                  107.0511                   
  D3                  116.5477                   
  R101                  0.9666                   
  AABS1               112.103                    
  BABS1               207.8844                   
  AABS2               105.1776                   
  RTS                   1.3198                   
  BABS2                65.1939                   
 
 IRC-IRC-IRC-IRC-IRC-IRC-IRC-IRC-IRC-IRC-IRC-IRC-IRC-IRC-IRC-IRC-IRC-IRC
 ------------------------------------------------------------------------
 INPUT DATA FOR L123
 ------------------------------------------------------------------------
 GENERAL PARAMETERS:
 Rxn path following direction = Reverse
 Maximum points per path      =  10
 Step size                    =   0.030 bohr
 Integration scheme           = HPC                                 
    Redo corrector integration= Yes                                 
    DWI Weight Power          =  2
    DWI will use Hessian update vectors when possible.
    Max correction cycles     =  20
 Initial Hessian              = CalcFC
 Hessian evaluation           = Analytic at all predictor steps
                              = Update at all corrector steps
 Hessian updating method      = Bofill                              
 ------------------------------------------------------------------------
 IRC-IRC-IRC-IRC-IRC-IRC-IRC-IRC-IRC-IRC-IRC-IRC-IRC-IRC-IRC-IRC-IRC-IRC
                          Input orientation:                          
 ---------------------------------------------------------------------
 Center     Atomic      Atomic             Coordinates (Angstroms)
 Number     Number       Type             X           Y           Z
 ---------------------------------------------------------------------
      1          7           0        0.000000    0.000000    0.000000
      2          1           0        0.000000    0.000000    1.015400
      3          1           0        0.972248    0.000000   -0.294252
      4          1           0       -0.477718   -0.956159   -0.327825
      5          8           0       -0.493041   -2.266396   -0.169975
      6          1           0        0.396336   -2.560440   -0.408434
 ---------------------------------------------------------------------
                    Distance matrix (angstroms):
                    1          2          3          4          5
     1  N    0.000000
     2  H    1.015400   0.000000
     3  H    1.015800   1.631090   0.000000
     4  H    1.118000   1.716598   1.737172   0.000000
     5  O    2.325625   2.604756   2.701678   1.319800   0.000000
     6  H    2.622928   2.956389   2.626893   1.828711   0.966600
                    6
     6  H    0.000000
 Symmetry turned off by external request.
 Stoichiometry    H4NO(2)
 Framework group  C1[X(H4NO)]
 Deg. of freedom    12
 Full point group                 C1      NOp   1
 Rotational constants (GHZ):    168.8616822     10.8553511     10.6106103
 Standard basis: CC-pVTZ (5D, 7F)
   116 basis functions,   172 primitive gaussians,   130 cartesian basis functions
    10 alpha electrons        9 beta electrons
       nuclear repulsion energy        37.1492375126 Hartrees.
 NAtoms=    6 NActive=    6 NUniq=    6 SFac= 1.00D+00 NAtFMM=   60 NAOKFM=F Big=F
 Integral buffers will be    131072 words long.
 Regular integral format.
 Two-electron integral symmetry is turned off.
 Nuclear repulsion after empirical dispersion term =       37.1479680871 Hartrees.
 One-electron integrals computed using PRISM.
 NBasis=   116 RedAO= T EigKep=  1.71D-03  NBF=   116
 NBsUse=   116 1.00D-06 EigRej= -1.00D+00 NBFU=   116
 ExpMin= 1.03D-01 ExpMax= 1.53D+04 ExpMxC= 5.22D+02 IAcc=3 IRadAn=         5 AccDes= 0.00D+00
 Harris functional with IExCor=  419 and IRadAn=       5 diagonalized for initial guess.
 HarFok:  IExCor=  419 AccDes= 0.00D+00 IRadAn=         5 IDoV= 1 UseB2=F ITyADJ=14
 ICtDFT=  3500011 ScaDFX=  1.000000  1.000000  1.000000  1.000000
 FoFCou: FMM=F IPFlag=           0 FMFlag=      100000 FMFlg1=           0
         NFxFlg=           0 DoJE=T BraDBF=F KetDBF=T FulRan=T
         wScrn=  0.000000 ICntrl=     500 IOpCl=  0 I1Cent=   200000004 NGrid=           0
         NMat0=    1 NMatS0=      1 NMatT0=    0 NMatD0=    1 NMtDS0=    0 NMtDT0=    0
 Symmetry not used in FoFCou.
 Initial guess <Sx>= 0.0000 <Sy>= 0.0000 <Sz>= 0.5000 <S**2>= 0.7500 S= 0.5000
 Keep R1 and R2 ints in memory in canonical form, NReq=48126377.
 Requested convergence on RMS density matrix=1.00D-08 within 128 cycles.
 Requested convergence on MAX density matrix=1.00D-06.
 Requested convergence on             energy=1.00D-06.
 No special actions if energy rises.
 Integral accuracy reduced to 1.0D-05 until final iterations.
 Initial convergence to 1.0D-05 achieved.  Increase integral accuracy.
 SCF Done:  E(UB2PLYPD3) =  -132.093319944     A.U. after   21 cycles
            NFock= 21  Conv=0.55D-08     -V/T= 2.0036
 <Sx>= 0.0000 <Sy>= 0.0000 <Sz>= 0.5000 <S**2>= 0.7682 S= 0.5090
 <L.S>= 0.000000000000E+00
 Annihilation of the first spin contaminant:
 S**2 before annihilation     0.7682,   after     0.7501
 DoSCS=T DFT=T ScalE2(SS,OS)=  0.270000  0.270000
 ExpMin= 1.03D-01 ExpMax= 1.53D+04 ExpMxC= 5.22D+02 IAcc=3 IRadAn=         5 AccDes= 0.00D+00
 HarFok:  IExCor=  205 AccDes= 0.00D+00 IRadAn=         5 IDoV=-2 UseB2=F ITyADJ=14
 ICtDFT= 12500011 ScaDFX=  1.000000  1.000000  1.000000  1.000000
 Range of M.O.s used for correlation:     3   116
 NBasis=   116 NAE=    10 NBE=     9 NFC=     2 NFV=     0
 NROrb=    114 NOA=     8 NOB=     7 NVA=   106 NVB=   107
 DoSCS=T DFT=T ScalE2(SS,OS)=  0.270000  0.270000
 Disk-based method using ON**2 memory for  8 occupieds at a time.
 Permanent disk used for amplitudes=     1475361 words.
 Estimated scratch disk usage=    31896488 words.
 Actual    scratch disk usage=    31372200 words.
 JobTyp=2 Pass  1:  I=   3 to  10 NPSUse= 10 ParTrn=T ParDer=T DoDerP=T.
 (rs|ai) integrals will be sorted in core.
 Actual    scratch disk usage=    31372200 words.
 JobTyp=3 Pass  1:  I=   3 to   9 NPSUse= 10 ParTrn=T ParDer=T DoDerP=T.
 (rs|ai) integrals will be sorted in core.
 Spin components of T(2) and E(2):
     alpha-alpha T2 =       0.2314776380D-01 E2=     -0.1994339581D-01
     alpha-beta  T2 =       0.1435157946D+00 E2=     -0.1164140820D+00
     beta-beta   T2 =       0.2914796897D-01 E2=     -0.1819284700D-01
 E2(B2PLYPD3) =    -0.1545503248D+00 E(B2PLYPD3) =    -0.13224787026844D+03
 G2DrvN: will do     7 centers at a time, making    1 passes.
 Calling FoFCou, ICntrl=  3107 FMM=F I1Cent=   0 AccDes= 0.00D+00.
 End of G2Drv F.D. properties file   721 does not exist.
 End of G2Drv F.D. properties file   722 does not exist.
 End of G2Drv F.D. properties file   788 does not exist.
          IDoAtm=111111
          Differentiating once with respect to electric field.
                with respect to dipole field.
          Differentiating once with respect to nuclear coordinates.
 Keep R1 and R2 ints in memory in canonical form, NReq=48077864.
          There are    21 degrees of freedom in the 1st order CPHF.  IDoFFX=6 NUNeed=    21.
     18 vectors produced by pass  0 Test12= 9.63D-15 4.76D-09 XBig12= 4.82D+01 5.64D+00.
 AX will form    18 AO Fock derivatives at one time.
     18 vectors produced by pass  1 Test12= 9.63D-15 4.76D-09 XBig12= 6.59D+00 7.36D-01.
     18 vectors produced by pass  2 Test12= 9.63D-15 4.76D-09 XBig12= 2.91D-01 1.32D-01.
     18 vectors produced by pass  3 Test12= 9.63D-15 4.76D-09 XBig12= 3.73D-03 1.54D-02.
     18 vectors produced by pass  4 Test12= 9.63D-15 4.76D-09 XBig12= 4.67D-05 1.36D-03.
     18 vectors produced by pass  5 Test12= 9.63D-15 4.76D-09 XBig12= 4.48D-07 1.13D-04.
     17 vectors produced by pass  6 Test12= 9.63D-15 4.76D-09 XBig12= 2.15D-09 5.61D-06.
      7 vectors produced by pass  7 Test12= 9.63D-15 4.76D-09 XBig12= 1.19D-11 5.83D-07.
      2 vectors produced by pass  8 Test12= 9.63D-15 4.76D-09 XBig12= 6.80D-14 5.88D-08.
 InvSVY:  IOpt=1 It=  1 EMax= 4.56D-15
 Solved reduced A of dimension   134 with    21 vectors.
 End of Minotr F.D. properties file   721 does not exist.
 End of Minotr F.D. properties file   722 does not exist.
 End of Minotr F.D. properties file   788 does not exist.
 MDV=  1048576000.
 DoSCS=T DFT=T ScalE2(SS,OS)=  0.270000  0.270000
 Form MO integral derivatives with frozen-active canonical formalism.
 Discarding MO integrals.
 Reordered first order wavefunction length =      6016755
 In DefCFB: NBatch=  1 ICI= 10 ICA=107 LFMax= 54
            Large arrays: LIAPS=   122027360 LIARS=    68159000 words.
 In DefCFB: NBatch=  1 ICI= 10 ICA=107 LFMax= 54
            Large arrays: LIAPS=   122027360 LIARS=    68159000 words.
 Semi-Direct transformation.
 ModeAB=           2 MOrb=            10 LenV=    1048016248
 LASXX=      7321660 LTotXX=     7321660 LenRXX=     7321660
 LTotAB=     7566390 MaxLAS=     9877400 LenRXY=     9877400
 NonZer=    14643320 LenScr=    22282240 LnRSAI=           0
 LnScr1=           0 LExtra=           0 Total=     39481300
 MaxDsk=          -1 SrtSym=           F ITran=            4
 JobTyp=1 Pass  1:  I=   1 to  10.
 (rs|ai) integrals will be sorted in core.
 ModeAB=           2 MOrb=             9 LenV=    1048016248
 LASXX=      6628032 LTotXX=     6628032 LenRXX=     8889660
 LTotAB=     5716368 MaxLAS=     8889660 LenRXY=     5716368
 NonZer=    13256064 LenScr=    20316160 LnRSAI=           0
 LnScr1=           0 LExtra=           0 Total=     34922188
 MaxDsk=          -1 SrtSym=           F ITran=            4
 JobTyp=2 Pass  1:  I=   1 to   9.
 (rs|ai) integrals will be sorted in core.
 DoSCS=T DFT=T ScalE2(SS,OS)=  0.270000  0.270000
 Spin components of T(2) and E(2):
     alpha-alpha T2 =       0.2314776380D-01 E2=     -0.1994339581D-01
     alpha-beta  T2 =       0.1435157946D+00 E2=     -0.1164140820D+00
     beta-beta   T2 =       0.2914796897D-01 E2=     -0.1819284700D-01
 E2(B2PLYPD3) =    -0.1545503248D+00 E(B2PLYPD3) =    -0.13224787026844D+03
          IDoAtm=111111
          Differentiating once with respect to electric field.
                with respect to dipole field.
          Differentiating once with respect to nuclear coordinates.
 Keep R1 and R2 ints in memory in canonical form, NReq=48077063.
          There are     1 degrees of freedom in the 1st order CPHF.  IDoFFX=0 NUNeed=     1.
 LinEq1:  Iter=  0 NonCon=     1 RMS=1.88D-03 Max=6.19D-02 NDo=     1
 AX will form     1 AO Fock derivatives at one time.
 LinEq1:  Iter=  1 NonCon=     1 RMS=4.81D-04 Max=5.02D-03 NDo=     1
 LinEq1:  Iter=  2 NonCon=     1 RMS=5.67D-04 Max=1.45D-02 NDo=     1
 LinEq1:  Iter=  3 NonCon=     1 RMS=1.75D-04 Max=2.31D-03 NDo=     1
 LinEq1:  Iter=  4 NonCon=     1 RMS=1.22D-04 Max=1.66D-03 NDo=     1
 LinEq1:  Iter=  5 NonCon=     1 RMS=4.79D-05 Max=1.34D-03 NDo=     1
 LinEq1:  Iter=  6 NonCon=     1 RMS=2.00D-05 Max=4.04D-04 NDo=     1
 LinEq1:  Iter=  7 NonCon=     1 RMS=5.52D-06 Max=6.73D-05 NDo=     1
 LinEq1:  Iter=  8 NonCon=     1 RMS=1.75D-06 Max=4.24D-05 NDo=     1
 LinEq1:  Iter=  9 NonCon=     1 RMS=5.15D-07 Max=7.12D-06 NDo=     1
 LinEq1:  Iter= 10 NonCon=     1 RMS=1.33D-07 Max=2.32D-06 NDo=     1
 LinEq1:  Iter= 11 NonCon=     1 RMS=3.28D-08 Max=3.48D-07 NDo=     1
 LinEq1:  Iter= 12 NonCon=     1 RMS=1.09D-08 Max=9.73D-08 NDo=     1
 LinEq1:  Iter= 13 NonCon=     1 RMS=2.29D-09 Max=2.14D-08 NDo=     1
 LinEq1:  Iter= 14 NonCon=     1 RMS=4.75D-10 Max=4.29D-09 NDo=     1
 LinEq1:  Iter= 15 NonCon=     1 RMS=1.10D-10 Max=9.76D-10 NDo=     1
 LinEq1:  Iter= 16 NonCon=     0 RMS=2.41D-11 Max=2.09D-10 NDo=     1
 Linear equations converged to 1.000D-10 1.000D-09 after    16 iterations.
 End of Minotr F.D. properties file   721 does not exist.
 End of Minotr F.D. properties file   722 does not exist.
 End of Minotr F.D. properties file   788 does not exist.
 Symmetrizing basis deriv contribution to polar:
 IMax=3 JMax=2 DiffMx= 0.00D+00
 G2DrvN: will do     7 centers at a time, making    1 passes.
 Calling FoFCou, ICntrl=  3107 FMM=F I1Cent=   0 AccDes= 0.00D+00.
 End of G2Drv F.D. properties file   721 does not exist.
 End of G2Drv F.D. properties file   722 does not exist.
 End of G2Drv F.D. properties file   788 does not exist.
 DoSCS=T DFT=T ScalE2(SS,OS)=  0.270000  0.270000
 R2 and R3 integrals will be kept in memory, NReq=    74453740.
 DD1Dir will call FoFMem   1 times, MxPair=       262
 NAB=    90 NAA=    45 NBB=    36.
 Discarding MO integrals.

 **********************************************************************

            Population analysis using the SCF density.

 **********************************************************************

 Alpha  occ. eigenvalues --  -19.75984 -14.85158  -1.15399  -0.99410  -0.61166
 Alpha  occ. eigenvalues --   -0.55747  -0.52293  -0.43719  -0.40507  -0.36112
 Alpha virt. eigenvalues --    0.05971   0.11711   0.14611   0.22454   0.36952
 Alpha virt. eigenvalues --    0.38667   0.46496   0.48574   0.50335   0.57476
 Alpha virt. eigenvalues --    0.58128   0.58598   0.62541   0.65028   0.66620
 Alpha virt. eigenvalues --    0.73687   0.76474   0.82943   0.87702   1.01060
 Alpha virt. eigenvalues --    1.06411   1.09435   1.13885   1.17503   1.32831
 Alpha virt. eigenvalues --    1.37987   1.40289   1.43624   1.59439   1.60004
 Alpha virt. eigenvalues --    1.62808   1.65876   1.80527   1.88713   1.95462
 Alpha virt. eigenvalues --    2.02688   2.05862   2.22866   2.40528   2.50511
 Alpha virt. eigenvalues --    2.63542   2.64754   3.14699   3.17604   3.24045
 Alpha virt. eigenvalues --    3.26239   3.26989   3.29998   3.30083   3.36469
 Alpha virt. eigenvalues --    3.40486   3.47400   3.53718   3.57289   3.57887
 Alpha virt. eigenvalues --    3.60198   3.65405   3.73708   3.77317   3.81856
 Alpha virt. eigenvalues --    3.83594   3.85971   3.86961   3.91546   4.02716
 Alpha virt. eigenvalues --    4.04614   4.11923   4.15115   4.16737   4.20603
 Alpha virt. eigenvalues --    4.28903   4.32313   4.35703   4.43737   4.62819
 Alpha virt. eigenvalues --    4.66408   4.71809   4.95699   4.99401   5.04542
 Alpha virt. eigenvalues --    5.18101   5.23951   5.35377   5.50236   5.54995
 Alpha virt. eigenvalues --    5.60592   5.71877   5.81912   5.85239   5.97780
 Alpha virt. eigenvalues --    6.06531   6.09492   6.17034   6.53692   6.57295
 Alpha virt. eigenvalues --    6.67557   6.68840   6.80472   6.82076   6.88069
 Alpha virt. eigenvalues --    6.94210   7.00854   7.34908   7.45862  11.01682
 Alpha virt. eigenvalues --   13.24983
  Beta  occ. eigenvalues --  -19.73684 -14.83990  -1.08515  -0.95529  -0.57157
  Beta  occ. eigenvalues --   -0.54770  -0.48286  -0.38321  -0.33224
  Beta virt. eigenvalues --   -0.06431   0.06480   0.12451   0.14871   0.22869
  Beta virt. eigenvalues --    0.36887   0.39165   0.47137   0.49661   0.52272
  Beta virt. eigenvalues --    0.58468   0.59306   0.59562   0.63568   0.66409
  Beta virt. eigenvalues --    0.68743   0.75623   0.77519   0.83416   0.88683
  Beta virt. eigenvalues --    1.01231   1.06688   1.10041   1.14178   1.18691
  Beta virt. eigenvalues --    1.33302   1.39079   1.41934   1.45553   1.60169
  Beta virt. eigenvalues --    1.62249   1.64699   1.66306   1.82616   1.89812
  Beta virt. eigenvalues --    1.97795   2.05477   2.07298   2.25599   2.40941
  Beta virt. eigenvalues --    2.50318   2.63751   2.65878   3.15269   3.19037
  Beta virt. eigenvalues --    3.25908   3.26548   3.27458   3.30221   3.30844
  Beta virt. eigenvalues --    3.36878   3.41170   3.47299   3.54676   3.57913
  Beta virt. eigenvalues --    3.59385   3.60732   3.65998   3.73709   3.77256
  Beta virt. eigenvalues --    3.82025   3.83675   3.86477   3.87758   3.91726
  Beta virt. eigenvalues --    4.03257   4.05901   4.12690   4.15926   4.17257
  Beta virt. eigenvalues --    4.21049   4.29860   4.33042   4.35770   4.46018
  Beta virt. eigenvalues --    4.63828   4.68144   4.73784   4.97747   5.01833
  Beta virt. eigenvalues --    5.06671   5.20063   5.25282   5.37363   5.52476
  Beta virt. eigenvalues --    5.58218   5.62311   5.74079   5.83544   5.86855
  Beta virt. eigenvalues --    5.99424   6.07690   6.09904   6.19120   6.57077
  Beta virt. eigenvalues --    6.59243   6.71380   6.73586   6.83350   6.85371
  Beta virt. eigenvalues --    6.89548   6.95610   7.03229   7.37625   7.50119
  Beta virt. eigenvalues --   11.03854  13.25960
          Condensed to atoms (all electrons):
               1          2          3          4          5          6
     1  N    6.397412   0.376657   0.376962   0.308887  -0.063970   0.018120
     2  H    0.376657   0.517865  -0.044081  -0.027703   0.005544  -0.000031
     3  H    0.376962  -0.044081   0.532934  -0.025928   0.004481   0.001612
     4  H    0.308887  -0.027703  -0.025928   0.392720   0.126444  -0.023687
     5  O   -0.063970   0.005544   0.004481   0.126444   8.002675   0.306825
     6  H    0.018120  -0.000031   0.001612  -0.023687   0.306825   0.476128
          Atomic-Atomic Spin Densities.
               1          2          3          4          5          6
     1  N    0.478688   0.001266   0.001082   0.011817  -0.078996   0.002948
     2  H    0.001266  -0.016076   0.000643   0.001259   0.001371  -0.000099
     3  H    0.001082   0.000643  -0.015620   0.000318   0.002593  -0.000433
     4  H    0.011817   0.001259   0.000318  -0.048491  -0.022354   0.001637
     5  O   -0.078996   0.001371   0.002593  -0.022354   0.775341  -0.001311
     6  H    0.002948  -0.000099  -0.000433   0.001637  -0.001311  -0.017322
 Mulliken charges and spin densities:
               1          2
     1  N   -0.414069   0.416805
     2  H    0.171749  -0.011635
     3  H    0.154020  -0.011418
     4  H    0.249267  -0.055814
     5  O   -0.382000   0.676644
     6  H    0.221033  -0.014581
 Sum of Mulliken charges =  -0.00000   1.00000
 Mulliken charges and spin densities with hydrogens summed into heavy atoms:
               1          2
     1  N    0.160967   0.337937
     5  O   -0.160967   0.662063
 APT charges:
               1
     1  N   -0.233269
     2  H    0.213840
     3  H    0.202419
     4  H   -0.226818
     5  O   -0.171662
     6  H    0.215490
 Sum of APT charges =  -0.00000
 APT charges with hydrogens summed into heavy atoms:
               1
     1  N   -0.043828
     5  O    0.043828
 Electronic spatial extent (au):  <R**2>=            220.7130
 Charge=             -0.0000 electrons
 Dipole moment (field-independent basis, Debye):
    X=              2.4838    Y=             -0.0778    Z=              0.3279  Tot=              2.5065
 Quadrupole moment (field-independent basis, Debye-Ang):
   XX=            -12.8238   YY=            -14.5898   ZZ=            -12.6696
   XY=             -3.4685   XZ=             -1.0553   YZ=              1.6347
 Traceless Quadrupole moment (field-independent basis, Debye-Ang):
   XX=              0.5373   YY=             -1.2287   ZZ=              0.6914
   XY=             -3.4685   XZ=             -1.0553   YZ=              1.6347
 Octapole moment (field-independent basis, Debye-Ang**2):
  XXX=              8.5013  YYY=             41.3413  ZZZ=              4.6566  XYY=             12.3698
  XXY=             14.6663  XXZ=              0.4848  XZZ=              2.8055  YZZ=             15.0502
  YYZ=             -2.4736  XYZ=              1.2464
 Hexadecapole moment (field-independent basis, Debye-Ang**3):
 XXXX=            -22.6787 YYYY=           -191.6681 ZZZZ=            -15.7641 XXXY=            -18.7345
 XXXZ=             -2.0251 YYYX=            -42.5107 YYYZ=              1.2385 ZZZX=             -1.5779
 ZZZY=             -8.6305 XXYY=            -39.0740 XXZZ=             -6.9770 YYZZ=            -38.7169
 XXYZ=             -2.6732 YYXZ=             -3.6264 ZZXY=             -6.9608
 N-N= 3.714796808713D+01 E-N=-3.856852372810D+02  KE= 1.316247066017D+02
  Exact polarizability:  18.169   6.825  57.359  -0.061   4.712  15.640
 Approx polarizability:  19.438   4.327  39.741  -0.809   2.256  16.167
                          Isotropic Fermi Contact Couplings
        Atom                 a.u.       MegaHertz       Gauss      10(-4) cm-1
     1  N(14)             -0.02418      -7.81282      -2.78781      -2.60608
     2  H(1)              -0.00702     -31.36874     -11.19315     -10.46349
     3  H(1)              -0.00728     -32.55892     -11.61783     -10.86049
     4  H(1)              -0.01531     -68.43866     -24.42061     -22.82868
     5  O(17)              0.02695     -16.33969      -5.83041      -5.45034
     6  H(1)              -0.00890     -39.78126     -14.19494     -13.26960
 --------------------------------------------------------
       Center         ----  Spin Dipole Couplings  ----
                      3XX-RR        3YY-RR        3ZZ-RR
 --------------------------------------------------------
     1   Atom       -0.637583      1.269212     -0.631630
     2   Atom       -0.058903     -0.005868      0.064771
     3   Atom        0.052935     -0.005837     -0.047098
     4   Atom       -0.055742      0.137570     -0.081828
     5   Atom       -0.770571      1.918073     -1.147502
     6   Atom        0.077640     -0.005702     -0.071938
 --------------------------------------------------------
                        XY            XZ            YZ
 --------------------------------------------------------
     1   Atom       -0.113188     -0.007886     -0.112802
     2   Atom       -0.001108     -0.003104      0.011811
     3   Atom        0.008260     -0.037072     -0.005076
     4   Atom        0.073542      0.035829      0.032154
     5   Atom        1.207877      0.223554      0.589816
     6   Atom       -0.040871     -0.041087      0.027541
 --------------------------------------------------------


 ---------------------------------------------------------------------------------
              Anisotropic Spin Dipole Couplings in Principal Axis System
 ---------------------------------------------------------------------------------

       Atom             a.u.   MegaHertz   Gauss  10(-4) cm-1        Axes

              Baa    -0.6561   -25.303    -9.029    -8.440  0.7727  0.0823  0.6294
     1 N(14)  Bbb    -0.6264   -24.159    -8.621    -8.059 -0.6320  0.0084  0.7749
              Bcc     1.2825    49.462    17.649    16.499 -0.0585  0.9966 -0.0585
 
              Baa    -0.0590   -31.476   -11.231   -10.499  0.9996  0.0156  0.0236
     2 H(1)   Bbb    -0.0078    -4.153    -1.482    -1.385 -0.0116  0.9869 -0.1611
              Bcc     0.0668    35.629    12.713    11.885 -0.0258  0.1608  0.9866
 
              Baa    -0.0594   -31.711   -11.315   -10.578  0.3102  0.0421  0.9497
     3 H(1)   Bbb    -0.0070    -3.722    -1.328    -1.241 -0.1362  0.9907  0.0006
              Bcc     0.0664    35.432    12.643    11.819  0.9408  0.1296 -0.3131
 
              Baa    -0.1084   -57.849   -20.642   -19.296 -0.6466  0.0943  0.7570
     4 H(1)   Bbb    -0.0610   -32.547   -11.614   -10.856  0.6878 -0.3571  0.6320
              Bcc     0.1694    90.396    32.256    30.153  0.3299  0.9293  0.1660
 
              Baa    -1.2571    90.962    32.458    30.342  0.0298 -0.1935  0.9807
     5 O(17)  Bbb    -1.2333    89.239    31.843    29.767  0.9353 -0.3406 -0.0956
              Bcc     2.4904  -180.201   -64.300   -60.109  0.3525  0.9201  0.1708
 
              Baa    -0.0865   -46.135   -16.462   -15.389  0.1808 -0.2342  0.9552
     6 H(1)   Bbb    -0.0210   -11.210    -4.000    -3.739  0.4276  0.8933  0.1381
              Bcc     0.1075    57.345    20.462    19.128  0.8857 -0.3835 -0.2617
 

 ---------------------------------------------------------------------------------

 Use density number 2.
 Entering OneElI...
 Calculate overlap and kinetic energy integrals
    NBasis = 130  MinDer = 2  MaxDer = 2
 Requested accuracy = 0.1000D-12
 PrsmSu:  NPrtUS=  10 ThrOK=T IAlg=1 NPAlg=1 LenDen=           0.
 Prism:   IPart=     0 DynPar=F LinDyn=F Incr=           1.
 PRISM was handed   104822400 working-precision words and   990 shell-pairs
 PRISM was handed   104822400 working-precision words and   990 shell-pairs
 PRISM was handed   104822400 working-precision words and   990 shell-pairs
 PRISM was handed   104822400 working-precision words and   990 shell-pairs
 PRISM was handed   104822400 working-precision words and   990 shell-pairs
 PRISM was handed   104822400 working-precision words and   990 shell-pairs
 PRISM was handed   104822400 working-precision words and   990 shell-pairs
 PRISM was handed   104822400 working-precision words and   990 shell-pairs
 PRISM was handed   104822400 working-precision words and   990 shell-pairs
 PRISM was handed   104822400 working-precision words and   990 shell-pairs
 IPart=  8 NShTot=          81 NBatch=          20 AvBLen=         4.1
 IPart=  4 NShTot=          98 NBatch=          25 AvBLen=         3.9
 IPart=  6 NShTot=          87 NBatch=          23 AvBLen=         3.8
 IPart=  7 NShTot=          86 NBatch=          22 AvBLen=         3.9
 IPart=  5 NShTot=          96 NBatch=          24 AvBLen=         4.0
 IPart=  9 NShTot=          81 NBatch=          20 AvBLen=         4.1
 IPart=  2 NShTot=         109 NBatch=          30 AvBLen=         3.6
 IPart=  3 NShTot=         108 NBatch=          29 AvBLen=         3.7
 IPart=  1 NShTot=         119 NBatch=          38 AvBLen=         3.1
 IPart=  0 NShTot=         125 NBatch=          44 AvBLen=         2.8
 PrSmSu:  NxtVal=             11.
 Entering OneElI...
 Calculate potential energy integrals
    NBasis = 130  MinDer = 2  MaxDer = 2
 Requested accuracy = 0.1000D-12
 PrsmSu:  NPrtUS=  10 ThrOK=T IAlg=1 NPAlg=1 LenDen=           0.
 Prism:   IPart=     0 DynPar=F LinDyn=F Incr=           5.
 PRISM was handed   104825198 working-precision words and   989 shell-pairs
 PRISM was handed   104825198 working-precision words and   989 shell-pairs
 PRISM was handed   104825198 working-precision words and   989 shell-pairs
 PRISM was handed   104825198 working-precision words and   989 shell-pairs
 PRISM was handed   104825198 working-precision words and   989 shell-pairs
 PRISM was handed   104825198 working-precision words and   989 shell-pairs
 PRISM was handed   104825198 working-precision words and   989 shell-pairs
 PRISM was handed   104825198 working-precision words and   989 shell-pairs
 PRISM was handed   104825198 working-precision words and   989 shell-pairs
 PRISM was handed   104825198 working-precision words and   989 shell-pairs
 IPart=  8 NShTot=         498 NBatch=          83 AvBLen=         6.0
 IPart=  4 NShTot=         582 NBatch=          97 AvBLen=         6.0
 IPart=  6 NShTot=         528 NBatch=          88 AvBLen=         6.0
 IPart=  2 NShTot=         654 NBatch=         109 AvBLen=         6.0
 IPart=  0 NShTot=         768 NBatch=         128 AvBLen=         6.0
 IPart=  9 NShTot=         492 NBatch=          82 AvBLen=         6.0
 IPart=  3 NShTot=         642 NBatch=         107 AvBLen=         6.0
 IPart=  7 NShTot=         504 NBatch=          84 AvBLen=         6.0
 IPart=  1 NShTot=         714 NBatch=         119 AvBLen=         6.0
 IPart=  5 NShTot=         552 NBatch=          92 AvBLen=         6.0
 PrSmSu:  NxtVal=             51.
 Polarizability after L701:
                1             2             3 
      1  0.181688D+02
      2  0.682460D+01  0.573594D+02
      3 -0.605830D-01  0.471198D+01  0.156403D+02
 Dipole Derivatives after L701:
                 1             2             3             4             5 
      1  -0.183807D+00  0.529686D-01  0.118409D-01  0.190025D+00 -0.478668D-02
      2   0.399117D+00 -0.285424D+00  0.287783D+00 -0.886870D-01  0.375988D+00
      3  -0.123029D-02  0.359999D-01 -0.230575D+00 -0.371334D-01  0.455940D-01
                 6             7             8             9            10 
      1  -0.201400D-02  0.509043D-01  0.624274D-01  0.102254D-01  0.120925D+00
      2   0.119090D+00  0.910431D-01  0.364901D+00 -0.988881D-01 -0.495721D+00
      3   0.755075D-01  0.446745D-01 -0.297802D-01  0.191452D+00 -0.490550D-02
                11            12            13            14            15 
      1  -0.229007D+00 -0.354131D-02 -0.248636D+00  0.847155D-01 -0.747386D-01
      2  -0.963805D+00 -0.260453D+00  0.197229D+00  0.224140D+00 -0.503123D-01
      3  -0.125797D+00  0.162426D+00 -0.503395D-01  0.753128D-01 -0.490488D+00
                16            17            18 
      1   0.705892D-01  0.336822D-01  0.582276D-01
      2  -0.102981D+00  0.284202D+00  0.278139D-02
      3   0.489342D-01 -0.132976D-02  0.291678D+00
 Hessian after L701:
                1             2             3             4             5 
      1  0.681717D+01
      2 -0.100927D+01  0.569257D+01
      3  0.447938D+00 -0.541228D+00  0.663770D+01
      4 -0.327673D+01  0.395113D-02  0.540102D-01  0.331074D+01
      5  0.192062D-01 -0.326852D+01 -0.116852D-03 -0.488814D-01  0.310996D+01
      6  0.845238D-01 -0.178130D+00 -0.608699D+00 -0.201548D+00  0.189981D-01
      7 -0.795291D+00 -0.140112D+00 -0.689689D+00 -0.718574D-02  0.179463D-01
      8  0.248993D-01 -0.328645D+01  0.182842D-01 -0.146498D-02  0.881900D-01
      9 -0.727886D+00  0.567020D-01 -0.308550D+01  0.172144D+00 -0.866907D-02
     10 -0.217372D+01  0.979942D+00  0.192220D+00  0.359400D-01 -0.223556D-01
     11  0.857428D+00  0.184212D-01  0.564253D+00 -0.839693D-03  0.651200D-02
     12  0.200439D+00  0.672482D+00 -0.231896D+01 -0.489374D-01 -0.911633D-01
     13 -0.515346D+00  0.314231D+00  0.546587D-02 -0.588013D-01  0.393563D-01
     14  0.178200D+00  0.620878D+00 -0.791427D-01  0.469178D-01  0.603364D-01
     15  0.965371D-02 -0.919120D-01 -0.531153D+00  0.234312D-01  0.761200D-01
     16 -0.560839D-01 -0.148745D+00 -0.994538D-02 -0.397135D-02 -0.527174D-02
     17 -0.704657D-01  0.223108D+00  0.379507D-01  0.317158D-03  0.352635D-02
     18 -0.146684D-01  0.820868D-01 -0.933887D-01  0.900036D-03  0.483117D-02
                6             7             8             9            10 
      6  0.735706D+00
      7  0.121903D+00  0.840725D+00
      8  0.179492D-01 -0.216733D-01  0.312652D+01
      9 -0.953803D-01  0.576288D+00 -0.489971D-01  0.320172D+01
     10 -0.374984D-01 -0.826608D-01 -0.938031D-01 -0.118502D-01  0.345638D+01
     11 -0.178020D-01 -0.188133D-01  0.887345D-02  0.812326D-02 -0.106493D+01
     12 -0.537662D-01 -0.279898D-02  0.773431D-02  0.499522D-01 -0.162606D+00
     13  0.455497D-01  0.620843D-01  0.944984D-01 -0.945685D-02 -0.124930D+01
     14  0.145686D+00  0.142591D+00  0.432678D-01 -0.544665D-02  0.129314D+00
     15  0.149200D-01 -0.122619D-01 -0.862917D-03 -0.625413D-01  0.219144D-01
     16 -0.129308D-01 -0.176727D-01 -0.245634D-02  0.761714D-03  0.133644D-01
     17  0.132993D-01  0.200609D-01  0.195964D-01 -0.171242D-02  0.718317D-01
     18  0.721966D-02  0.655850D-02  0.589235D-02 -0.825240D-02 -0.217944D-02
               11            12            13            14            15 
     11 -0.612463D+00
     12 -0.516010D+00  0.358485D+01
     13  0.172129D+00  0.149052D-01  0.295614D+01
     14  0.638077D+00 -0.683998D-01  0.373020D+00  0.230199D+01
     15 -0.303713D-01 -0.130641D+01  0.814230D+00 -0.274118D+00  0.580139D+01
     16  0.550251D-01 -0.100133D-02 -0.119478D+01 -0.870042D+00 -0.856968D+00
     17 -0.594205D-01 -0.464265D-02 -0.993235D+00 -0.366454D+01  0.321144D+00
     18 -0.819241D-02  0.443353D-01 -0.870694D+00  0.281421D+00 -0.391620D+01
               16            17            18 
     16  0.125914D+01
     17  0.971491D+00  0.347774D+01
     18  0.880084D+00 -0.366039D+00  0.396629D+01
 ICntrl=  10100127.
 Calling FoFJK, ICntrl=  10100127 FMM=F ISym2X=0 I1Cent= 0 IOpClX= 1 NMat=1 NMatS=1 NMatT=0.
 FoFJK:  IHMeth= 1 ICntrl=10100127 DoSepK=F KAlg= 0 I1Cent=   0 FoldK=F
 IRaf=         0 NMat=   1 IRICut=       1 DoRegI=T DoRafI=F ISym2E= 0.
 FoFCou: FMM=F IPFlag=           0 FMFlag=      100000 FMFlg1=         800
         NFxFlg=           0 DoJE=F BraDBF=F KetDBF=F FulRan=T
         wScrn=  0.000000 ICntrl=10100127 IOpCl=  1 I1Cent=           0 NGrid=           0
         NMat0=    1 NMatS0=      1 NMatT0=    0 NMatD0=    1 NMtDS0=    0 NMtDT0=    0
 Symmetry not used in FoFCou.
 FoFCou:  KetSym=F NOpSet=  1 NOpAb=1 NOp=  1.
 FoFCou:  CnvScl= 1.00D+00 Thresh= 1.00D-10 IAcrcy=      10.
 PrismS was handed  1048463443 working-precision words and   989 shell-pairs
 FoFCou: LinMIO=F DoNuc=F BraDBF=F KetDBF=F HaveP=T PDBF=F HaveZ=T HaveW=F
         NIJTC =      10 NIJTAt=       0 NIJTCD=       0 NIJTT =      10
         IJTBeg=       1 IJTEnd=      10 KLTBeg=       1 KLTEnd=      10
         IPTBeg=       1 IPTEnd=      10 IPTBCv=       1 IPTECv=      10
         IZTBeg=       1 IZTEnd=      10 IZTBCv=       1 IZTECv=      10
         IWTBeg=      11 IWTEnd=      10 IWTBCv=      11 IWTECv=      10
         INTBeg=       1 INTEnd=       0 IFTBCv=       1 IFTECv=      10
 NCel replicated for PrismC:     1
 CoulSu:  IncDef=  1024 NBBP=         489555 NTPThr=   100 NPartT=   10 Incr=         489 LDynOK=F.
 CoulSu:  NPrtUS=  10 ThrOK=T IAlg=1 NPAlg=1 LenDen=           0 LWGrdD=           0 DoCopy=F.
 Enter PrismC: JobTyp=22 DoJE=F Cont=F.
 PrismC:  IPart=     0 DynPar=T LinDyn=F Incr=         489 UseFst=F UseS4=T IGathr=2.
 Enter PrismC: JobTyp=22 DoJE=F Cont=F.
 PrismC was handed   104825101 working-precision words and   989 shell-pairs
 PrismC was handed   104825101 working-precision words and   989 shell-pairs
 Enter PrismC: JobTyp=22 DoJE=F Cont=F.
 Enter PrismC: JobTyp=22 DoJE=F Cont=F.
 Enter PrismC: JobTyp=22 DoJE=F Cont=F.
 PrismC was handed   104825101 working-precision words and   989 shell-pairs
 PrismC was handed   104825101 working-precision words and   989 shell-pairs
 PrismC was handed   104825101 working-precision words and   989 shell-pairs
 Enter PrismC: JobTyp=22 DoJE=F Cont=F.
 Enter PrismC: JobTyp=22 DoJE=F Cont=F.
 PrismC was handed   104825101 working-precision words and   989 shell-pairs
 PrismC was handed   104825101 working-precision words and   989 shell-pairs
 Enter PrismC: JobTyp=22 DoJE=F Cont=F.
 Enter PrismC: JobTyp=22 DoJE=F Cont=F.
 PrismC was handed   104825101 working-precision words and   989 shell-pairs
 PrismC was handed   104825101 working-precision words and   989 shell-pairs
 Enter PrismC: JobTyp=22 DoJE=F Cont=F.
 PrismC was handed   104825101 working-precision words and   989 shell-pairs
 IPart=  8 NShTot=       41529 NShNF=       41529 NShFF=           0 NBatch=        1691 AvBLen=        24.6
 IPart=  4 NShTot=       47109 NShNF=       47109 NShFF=           0 NBatch=        1864 AvBLen=        25.3
 IPart=  0 NShTot=       46059 NShNF=       46059 NShFF=           0 NBatch=        1858 AvBLen=        24.8
 IPart=  5 NShTot=       45421 NShNF=       45421 NShFF=           0 NBatch=        1772 AvBLen=        25.6
 IPart=  9 NShTot=       48615 NShNF=       48615 NShFF=           0 NBatch=        1764 AvBLen=        27.6
 IPart=  7 NShTot=       43038 NShNF=       43038 NShFF=           0 NBatch=        1971 AvBLen=        21.8
 IPart=  1 NShTot=       45602 NShNF=       45602 NShFF=           0 NBatch=        1742 AvBLen=        26.2
 IPart=  3 NShTot=       49328 NShNF=       49328 NShFF=           0 NBatch=        1693 AvBLen=        29.1
 IPart=  2 NShTot=       44739 NShNF=       44739 NShFF=           0 NBatch=        1816 AvBLen=        24.6
 IPart=  6 NShTot=       44995 NShNF=       44995 NShFF=           0 NBatch=        1921 AvBLen=        23.4
 CoulSu:  NxtVal=         527143.
 ReadGW:  IGet=0 IStart=           1 Next=           1 LGW=           0.
 Remaining memory in FofDFT      999.97 Mw
 CkSvGd:  ISavGI=        -1 IRadAn=       5 IRASav=       5 ISavGd=        -1.
 CalDSu:  NPrtUS=  10 ThrOK=T IAlg=1 NPAlg=2 DoDPD=T LenP=        8515 LenD1P=             0.
 IPart=  0 IRanGd=          0 ScrnBf=T ScrnGd=T RCrit=4.00D+00 DoMicB=T.
 IPart=  3        13212 of        14678 points in      15 batches and       74 microbatches, Max-NSigAt=       6 Max-NSgAt2=       6
 IPart=  7        12042 of        13008 points in      12 batches and       72 microbatches, Max-NSigAt=       6 Max-NSgAt2=       6
 IPart=  6        11641 of        12284 points in      11 batches and       77 microbatches, Max-NSigAt=       6 Max-NSgAt2=       6
 IPart=  2        11232 of        11666 points in      10 batches and       57 microbatches, Max-NSigAt=       6 Max-NSgAt2=       6
 IPart=  8        13308 of        14294 points in      13 batches and       83 microbatches, Max-NSigAt=       6 Max-NSgAt2=       6
 IPart=  1        11373 of        12228 points in      12 batches and       75 microbatches, Max-NSigAt=       6 Max-NSgAt2=       6
 IPart=  0        13174 of        13878 points in      10 batches and       74 microbatches, Max-NSigAt=       6 Max-NSgAt2=       6
 IPart=  5        12926 of        13928 points in      11 batches and       65 microbatches, Max-NSigAt=       6 Max-NSgAt2=       6
 IPart=  9        13206 of        14448 points in      15 batches and      110 microbatches, Max-NSigAt=       6 Max-NSgAt2=       6
 IPart=  4        11594 of        12432 points in      12 batches and       68 microbatches, Max-NSigAt=       6 Max-NSgAt2=       6
 Polarizability after L703:
                1             2             3 
      1  0.181688D+02
      2  0.682460D+01  0.573594D+02
      3 -0.605830D-01  0.471198D+01  0.156403D+02
 Dipole Derivatives after L703:
                 1             2             3             4             5 
      1  -0.183807D+00  0.529686D-01  0.118409D-01  0.190025D+00 -0.478668D-02
      2   0.399117D+00 -0.285424D+00  0.287783D+00 -0.886870D-01  0.375988D+00
      3  -0.123029D-02  0.359999D-01 -0.230575D+00 -0.371334D-01  0.455940D-01
                 6             7             8             9            10 
      1  -0.201400D-02  0.509043D-01  0.624274D-01  0.102254D-01  0.120925D+00
      2   0.119090D+00  0.910431D-01  0.364901D+00 -0.988881D-01 -0.495721D+00
      3   0.755075D-01  0.446745D-01 -0.297802D-01  0.191452D+00 -0.490550D-02
                11            12            13            14            15 
      1  -0.229007D+00 -0.354131D-02 -0.248636D+00  0.847155D-01 -0.747386D-01
      2  -0.963805D+00 -0.260453D+00  0.197229D+00  0.224140D+00 -0.503123D-01
      3  -0.125797D+00  0.162426D+00 -0.503395D-01  0.753128D-01 -0.490488D+00
                16            17            18 
      1   0.705892D-01  0.336822D-01  0.582276D-01
      2  -0.102981D+00  0.284202D+00  0.278139D-02
      3   0.489342D-01 -0.132976D-02  0.291678D+00
 Hessian after L703:
                1             2             3             4             5 
      1  0.500723D+00
      2  0.851219D-01  0.207473D+00
      3 -0.943951D-01  0.619479D-01  0.553079D+00
      4 -0.468765D-01 -0.182370D-01 -0.199675D-01  0.478330D-01
      5 -0.134897D-01 -0.240678D-01  0.146177D-01  0.114911D-01  0.237869D-01
      6  0.142658D-01 -0.174287D-01 -0.429747D+00 -0.929502D-02  0.769839D-02
      7 -0.396988D+00 -0.219426D-01  0.121210D+00 -0.156435D-02  0.177877D-02
      8  0.982451D-02 -0.265568D-01 -0.185747D-01  0.213864D-02  0.217671D-03
      9  0.861656D-01 -0.131375D-01 -0.769977D-01  0.428739D-01  0.708460D-03
     10 -0.602606D-01 -0.431993D-01 -0.488967D-02  0.113311D-02  0.438371D-03
     11 -0.356653D-01 -0.495664D-01 -0.283271D-01  0.568866D-02  0.431106D-02
     12 -0.793781D-02 -0.394439D-01 -0.537917D-01 -0.162937D-01 -0.221101D-01
     13  0.443716D-03  0.380450D-03 -0.187742D-02 -0.318208D-03 -0.404320D-03
     14 -0.456350D-01 -0.101803D+00 -0.285769D-01 -0.139085D-02 -0.400088D-02
     15  0.702585D-03  0.715306D-02  0.874333D-02  0.195577D-02 -0.122043D-03
     16  0.295876D-02 -0.212349D-02 -0.798301D-04 -0.207076D-03  0.185800D-03
     17 -0.156422D-03 -0.547918D-02 -0.108703D-02  0.309448D-03 -0.246888D-03
     18  0.119894D-02  0.909231D-03 -0.128538D-02  0.726594D-03 -0.792427D-03
                6             7             8             9            10 
      6  0.448650D+00
      7 -0.702569D-02  0.407288D+00
      8  0.142594D-02  0.105408D-01  0.251064D-01
      9 -0.117237D-01 -0.119347D+00  0.929690D-02  0.853254D-01
     10  0.165679D-02 -0.112511D-01 -0.200639D-01 -0.116202D-01  0.938222D-01
     11  0.102775D-01  0.133701D-01  0.577349D-02  0.437209D-02  0.178079D-01
     12 -0.909894D-02  0.529710D-02  0.728567D-02  0.376666D-02  0.164575D-01
     13 -0.521572D-04  0.172018D-02 -0.350862D-02  0.237945D-02 -0.205087D-01
     14 -0.189637D-02 -0.275640D-02 -0.511233D-02 -0.467511D-03  0.287291D-01
     15  0.202310D-02 -0.285781D-03 -0.267252D-04 -0.137890D-02  0.204519D-02
     16  0.450262D-03  0.795703D-03  0.106865D-02 -0.451813D-03 -0.293497D-02
     17 -0.767402D-04 -0.990668D-03  0.571518D-03 -0.772411D-03  0.162879D-01
     18 -0.102844D-03  0.151696D-03  0.592862D-03  0.100818D-02 -0.364953D-02
               11            12            13            14            15 
     11 -0.248726D-01
     12  0.231719D-01  0.741929D-01
     13  0.437347D-02  0.234795D-02  0.456996D+00
     14  0.625855D-01  0.334235D-01 -0.125972D+00  0.115521D+00
     15 -0.913213D-02 -0.155213D-01 -0.120491D+00  0.351493D-01  0.382964D-01
     16 -0.557490D-02  0.129029D-03 -0.438333D+00  0.147025D+00  0.116073D+00
     17  0.176893D-02 -0.232696D-02  0.125131D+00 -0.671900D-01 -0.330214D-01
     18 -0.362317D-03  0.452288D-03  0.117693D+00 -0.376319D-01 -0.321627D-01
               16            17            18 
     16  0.437720D+00
     17 -0.140582D+00  0.705757D-01
     18 -0.116121D+00  0.372846D-01  0.320905D-01
 FrcOut:
 IF    =    46 IFX   =    67 IFXYZ =    85
 IFFX  =   103 IFFFX =   274 IFLen =    21
 IFFLen=   171 IFFFLn=     0 IEDerv=   274
 LEDerv=   917 IFroze=  1411 ICStrt= 28630
 DipoleDeriv   =-1.83807129D-01 3.99116687D-01-1.23029070D-03
                 5.29685797D-02-2.85424456D-01 3.59998686D-02
                 1.18408506D-02 2.87782792D-01-2.30574518D-01
                 1.90024558D-01-8.86870403D-02-3.71333986D-02
                -4.78668455D-03 3.75987667D-01 4.55940136D-02
                -2.01400195D-03 1.19089601D-01 7.55074800D-02
                 5.09043084D-02 9.10430634D-02 4.46744760D-02
                 6.24274444D-02 3.64900642D-01-2.97801537D-02
                 1.02254441D-02-9.88881066D-02 1.91451935D-01
                 1.20925393D-01-4.95721154D-01-4.90550005D-03
                -2.29007003D-01-9.63804995D-01-1.25796815D-01
                -3.54131292D-03-2.60453373D-01 1.62425611D-01
                -2.48636368D-01 1.97229499D-01-5.03395067D-02
                 8.47154960D-02 2.24139523D-01 7.53128497D-02
                -7.47385858D-02-5.03123007D-02-4.90488288D-01
                 7.05892382D-02-1.02981055D-01 4.89342201D-02
                 3.36821681D-02 2.84201620D-01-1.32976364D-03
                 5.82276059D-02 2.78138753D-03 2.91677780D-01
 -------------------------------------------------------------------
 Center     Atomic                   Forces (Hartrees/Bohr)
 Number     Number              X              Y              Z
 -------------------------------------------------------------------
      1        7          -0.000007920   -0.000012910    0.000011461
      2        1           0.000001345    0.000003797   -0.000009672
      3        1           0.000010553    0.000007386   -0.000001634
      4        1          -0.000002876   -0.000006815    0.000001269
      5        8           0.000043387   -0.000005998   -0.000014995
      6        1          -0.000044489    0.000014539    0.000013572
 -------------------------------------------------------------------
 Cartesian Forces:  Max     0.000044489 RMS     0.000017019
 -----------------------------------------------------------------------------------------------
                       Internal Coordinate Forces (Hartree/Bohr or radian)
  Cent   Atom   N1       Length/X         N2         Alpha/Y        N3         Beta/Z          J
 -----------------------------------------------------------------------------------------------
      1  N 
      2  H        1  -0.000010(     1)
      3  H        1   0.000011(     2)      2  -0.000003(     7)
      4  H        1   0.000000(     3)      2   0.000002(     8)      3   0.000012(    12)     0
         X        4  -0.000000(     4)      1  -0.000001(     9)      2   0.000004(    13)     0
      5  O        4  -0.000009(     5)      5   0.000000(    10)      1  -0.000002(    14)     0
      6  H        6  -0.000049(     6)      4   0.000001(    11)      5   0.000003(    15)     0
 -----------------------------------------------------------------------------------------------
 Internal  Forces:  Max     0.000048706 RMS     0.000013750
 Force constants in Cartesian coordinates: 
                1             2             3             4             5 
      1  0.500723D+00
      2  0.851219D-01  0.207473D+00
      3 -0.943951D-01  0.619479D-01  0.553079D+00
      4 -0.468765D-01 -0.182370D-01 -0.199675D-01  0.478330D-01
      5 -0.134897D-01 -0.240678D-01  0.146177D-01  0.114911D-01  0.237869D-01
      6  0.142658D-01 -0.174287D-01 -0.429747D+00 -0.929502D-02  0.769839D-02
      7 -0.396988D+00 -0.219426D-01  0.121210D+00 -0.156435D-02  0.177877D-02
      8  0.982451D-02 -0.265568D-01 -0.185747D-01  0.213864D-02  0.217671D-03
      9  0.861656D-01 -0.131375D-01 -0.769977D-01  0.428739D-01  0.708460D-03
     10 -0.602606D-01 -0.431993D-01 -0.488967D-02  0.113311D-02  0.438371D-03
     11 -0.356653D-01 -0.495664D-01 -0.283271D-01  0.568866D-02  0.431106D-02
     12 -0.793781D-02 -0.394439D-01 -0.537917D-01 -0.162937D-01 -0.221101D-01
     13  0.443716D-03  0.380450D-03 -0.187742D-02 -0.318208D-03 -0.404320D-03
     14 -0.456350D-01 -0.101803D+00 -0.285769D-01 -0.139085D-02 -0.400088D-02
     15  0.702585D-03  0.715306D-02  0.874333D-02  0.195577D-02 -0.122043D-03
     16  0.295876D-02 -0.212349D-02 -0.798301D-04 -0.207076D-03  0.185800D-03
     17 -0.156422D-03 -0.547918D-02 -0.108703D-02  0.309448D-03 -0.246888D-03
     18  0.119894D-02  0.909231D-03 -0.128538D-02  0.726594D-03 -0.792427D-03
                6             7             8             9            10 
      6  0.448650D+00
      7 -0.702569D-02  0.407288D+00
      8  0.142594D-02  0.105408D-01  0.251064D-01
      9 -0.117237D-01 -0.119347D+00  0.929690D-02  0.853254D-01
     10  0.165679D-02 -0.112511D-01 -0.200639D-01 -0.116202D-01  0.938222D-01
     11  0.102775D-01  0.133701D-01  0.577349D-02  0.437209D-02  0.178079D-01
     12 -0.909894D-02  0.529710D-02  0.728567D-02  0.376666D-02  0.164575D-01
     13 -0.521572D-04  0.172018D-02 -0.350862D-02  0.237945D-02 -0.205087D-01
     14 -0.189637D-02 -0.275640D-02 -0.511233D-02 -0.467511D-03  0.287291D-01
     15  0.202310D-02 -0.285781D-03 -0.267252D-04 -0.137890D-02  0.204519D-02
     16  0.450262D-03  0.795703D-03  0.106865D-02 -0.451813D-03 -0.293497D-02
     17 -0.767402D-04 -0.990668D-03  0.571518D-03 -0.772411D-03  0.162879D-01
     18 -0.102844D-03  0.151696D-03  0.592862D-03  0.100818D-02 -0.364953D-02
               11            12            13            14            15 
     11 -0.248726D-01
     12  0.231719D-01  0.741929D-01
     13  0.437347D-02  0.234795D-02  0.456996D+00
     14  0.625855D-01  0.334235D-01 -0.125972D+00  0.115521D+00
     15 -0.913213D-02 -0.155213D-01 -0.120491D+00  0.351493D-01  0.382964D-01
     16 -0.557490D-02  0.129029D-03 -0.438333D+00  0.147025D+00  0.116073D+00
     17  0.176893D-02 -0.232696D-02  0.125131D+00 -0.671900D-01 -0.330214D-01
     18 -0.362317D-03  0.452288D-03  0.117693D+00 -0.376319D-01 -0.321627D-01
               16            17            18 
     16  0.437720D+00
     17 -0.140582D+00  0.705757D-01
     18 -0.116121D+00  0.372846D-01  0.320905D-01
 FCInt: Cartesian first derivatives: 
                 1             2             3             4             5 
      1  -0.791996D-05  0.134481D-05  0.105535D-04 -0.287583D-05  0.433866D-04
      2  -0.129103D-04  0.379728D-05  0.738616D-05 -0.681477D-05 -0.599756D-05
      3   0.114607D-04 -0.967236D-05 -0.163447D-05  0.126856D-05 -0.149946D-04
                 6 
      1  -0.444891D-04
      2   0.145392D-04
      3   0.135722D-04
 FCInt: Cartesian force constants: 
                1             2             3             4             5 
      1  0.500723D+00
      2  0.851219D-01  0.207473D+00
      3 -0.943951D-01  0.619479D-01  0.553079D+00
      4 -0.468765D-01 -0.182370D-01 -0.199675D-01  0.478330D-01
      5 -0.134897D-01 -0.240678D-01  0.146177D-01  0.114911D-01  0.237869D-01
      6  0.142658D-01 -0.174287D-01 -0.429747D+00 -0.929502D-02  0.769839D-02
      7 -0.396988D+00 -0.219426D-01  0.121210D+00 -0.156435D-02  0.177877D-02
      8  0.982451D-02 -0.265568D-01 -0.185747D-01  0.213864D-02  0.217671D-03
      9  0.861656D-01 -0.131375D-01 -0.769977D-01  0.428739D-01  0.708460D-03
     10 -0.602606D-01 -0.431993D-01 -0.488967D-02  0.113311D-02  0.438371D-03
     11 -0.356653D-01 -0.495664D-01 -0.283271D-01  0.568866D-02  0.431106D-02
     12 -0.793781D-02 -0.394439D-01 -0.537917D-01 -0.162937D-01 -0.221101D-01
     13  0.443716D-03  0.380450D-03 -0.187742D-02 -0.318208D-03 -0.404320D-03
     14 -0.456350D-01 -0.101803D+00 -0.285769D-01 -0.139085D-02 -0.400088D-02
     15  0.702585D-03  0.715306D-02  0.874333D-02  0.195577D-02 -0.122043D-03
     16  0.295876D-02 -0.212349D-02 -0.798301D-04 -0.207076D-03  0.185800D-03
     17 -0.156422D-03 -0.547918D-02 -0.108703D-02  0.309448D-03 -0.246888D-03
     18  0.119894D-02  0.909231D-03 -0.128538D-02  0.726594D-03 -0.792427D-03
                6             7             8             9            10 
      6  0.448650D+00
      7 -0.702569D-02  0.407288D+00
      8  0.142594D-02  0.105408D-01  0.251064D-01
      9 -0.117237D-01 -0.119347D+00  0.929690D-02  0.853254D-01
     10  0.165679D-02 -0.112511D-01 -0.200639D-01 -0.116202D-01  0.938222D-01
     11  0.102775D-01  0.133701D-01  0.577349D-02  0.437209D-02  0.178079D-01
     12 -0.909894D-02  0.529710D-02  0.728567D-02  0.376666D-02  0.164575D-01
     13 -0.521572D-04  0.172018D-02 -0.350862D-02  0.237945D-02 -0.205087D-01
     14 -0.189637D-02 -0.275640D-02 -0.511233D-02 -0.467511D-03  0.287291D-01
     15  0.202310D-02 -0.285781D-03 -0.267252D-04 -0.137890D-02  0.204519D-02
     16  0.450262D-03  0.795703D-03  0.106865D-02 -0.451813D-03 -0.293497D-02
     17 -0.767402D-04 -0.990668D-03  0.571518D-03 -0.772411D-03  0.162879D-01
     18 -0.102844D-03  0.151696D-03  0.592862D-03  0.100818D-02 -0.364953D-02
               11            12            13            14            15 
     11 -0.248726D-01
     12  0.231719D-01  0.741929D-01
     13  0.437347D-02  0.234795D-02  0.456996D+00
     14  0.625855D-01  0.334235D-01 -0.125972D+00  0.115521D+00
     15 -0.913213D-02 -0.155213D-01 -0.120491D+00  0.351493D-01  0.382964D-01
     16 -0.557490D-02  0.129029D-03 -0.438333D+00  0.147025D+00  0.116073D+00
     17  0.176893D-02 -0.232696D-02  0.125131D+00 -0.671900D-01 -0.330214D-01
     18 -0.362317D-03  0.452288D-03  0.117693D+00 -0.376319D-01 -0.321627D-01
               16            17            18 
     16  0.437720D+00
     17 -0.140582D+00  0.705757D-01
     18 -0.116121D+00  0.372846D-01  0.320905D-01
 Internal force constants: 
                1             2             3             4             5 
      1  0.448650D+00
      2 -0.332841D-02  0.446450D+00
      3 -0.587535D-02 -0.588899D-02  0.206065D+00
      4  0.000000D+00  0.000000D+00  0.000000D+00  0.000000D+00
      5  0.218386D-02  0.317987D-02  0.130941D+00  0.000000D+00  0.507733D-01
      6  0.463006D-03  0.107777D-02  0.197030D-02  0.000000D+00 -0.515052D-02
      7  0.254463D-01  0.192970D-01  0.248452D-02  0.000000D+00 -0.418232D-02
      8  0.158999D-01 -0.441884D-02  0.915813D-02  0.000000D+00  0.409063D-02
      9  0.377103D-02 -0.511638D-03 -0.854725D-02  0.000000D+00 -0.144400D-01
     10  0.394385D-02 -0.130624D-02 -0.698042D-02  0.000000D+00 -0.132617D-01
     11 -0.118411D-03  0.774267D-03  0.934250D-02  0.000000D+00  0.778478D-02
     12  0.261984D-02  0.135779D-01  0.114919D-01  0.000000D+00  0.844082D-02
     13  0.130572D-02 -0.182602D-02  0.122823D-02  0.000000D+00 -0.106548D-02
     14  0.161805D-02  0.357308D-02 -0.811252D-02  0.000000D+00 -0.230189D-01
     15  0.440680D-04  0.707594D-04  0.165700D-02  0.000000D+00 -0.327684D-02
                6             7             8             9            10 
      6  0.516068D+00
      7  0.235174D-03  0.170121D+00
      8  0.134756D-03  0.167137D-01  0.124057D+00
      9 -0.681706D-04  0.180864D-02  0.788655D-03  0.317920D-01
     10 -0.254710D-03  0.240008D-02  0.616036D-05  0.337399D-01  0.375761D-01
     11  0.597698D-02 -0.426490D-02 -0.130844D-02  0.244213D-02 -0.182061D-03
     12  0.122311D-02 -0.421464D-01 -0.377131D-01 -0.160032D-02  0.132915D-02
     13 -0.415777D-03  0.171362D-02 -0.147732D-02  0.120552D-01  0.165786D-01
     14  0.371472D-02 -0.871330D-02 -0.441832D-02  0.984740D-02  0.477382D-02
     15  0.108679D-02 -0.265895D-02 -0.321406D-02 -0.196425D-03  0.756501D-03
               11            12            13            14            15 
     11  0.761173D-01
     12 -0.235663D-02  0.848271D-01
     13 -0.500470D-02  0.586643D-02  0.126645D-01
     14 -0.720677D-02 -0.663204D-02 -0.839523D-02  0.493635D-01
     15 -0.786846D-02  0.300221D-02  0.198876D-02  0.743240D-02  0.451038D-02
 Frcnst in PutFF: 
                1             2             3             4             5 
      1  0.448650D+00
      2 -0.332841D-02  0.446450D+00
      3  0.254463D-01  0.192970D-01  0.170121D+00
      4 -0.587535D-02 -0.588899D-02  0.248452D-02  0.206065D+00
      5  0.158999D-01 -0.441884D-02  0.167137D-01  0.915813D-02  0.124057D+00
      6  0.261984D-02  0.135779D-01 -0.421464D-01  0.114919D-01 -0.377131D-01
      7  0.463006D-03  0.107777D-02  0.235174D-03  0.197030D-02  0.134756D-03
      8  0.394385D-02 -0.130624D-02  0.240008D-02 -0.698042D-02  0.616036D-05
      9  0.161805D-02  0.357308D-02 -0.871330D-02 -0.811252D-02 -0.441832D-02
     10 -0.118411D-03  0.774267D-03 -0.426490D-02  0.934250D-02 -0.130844D-02
     11  0.218386D-02  0.317987D-02 -0.418232D-02  0.130941D+00  0.409063D-02
     12  0.440680D-04  0.707594D-04 -0.265895D-02  0.165700D-02 -0.321406D-02
                6             7             8             9            10 
      6  0.848271D-01
      7  0.122311D-02  0.516068D+00
      8  0.132915D-02 -0.254710D-03  0.375761D-01
      9 -0.663204D-02  0.371472D-02  0.477382D-02  0.493635D-01
     10 -0.235663D-02  0.597698D-02 -0.182061D-03 -0.720677D-02  0.761173D-01
     11  0.844082D-02 -0.515052D-02 -0.132617D-01 -0.230189D-01  0.778478D-02
     12  0.300221D-02  0.108679D-02  0.756501D-03  0.743240D-02 -0.786846D-02
               11            12 
     11  0.507733D-01
     12 -0.327684D-02  0.451038D-02
 Force constants in internal coordinates: 
                1             2             3             4             5 
      1  0.448650D+00
      2 -0.332841D-02  0.446450D+00
      3 -0.587535D-02 -0.588899D-02  0.206065D+00
      4  0.000000D+00  0.000000D+00  0.000000D+00  0.000000D+00
      5  0.218386D-02  0.317987D-02  0.130941D+00  0.000000D+00  0.507733D-01
      6  0.463006D-03  0.107777D-02  0.197030D-02  0.000000D+00 -0.515052D-02
      7  0.254463D-01  0.192970D-01  0.248452D-02  0.000000D+00 -0.418232D-02
      8  0.158999D-01 -0.441884D-02  0.915813D-02  0.000000D+00  0.409063D-02
      9  0.377103D-02 -0.511638D-03 -0.854725D-02  0.000000D+00 -0.144400D-01
     10  0.394385D-02 -0.130624D-02 -0.698042D-02  0.000000D+00 -0.132617D-01
     11 -0.118411D-03  0.774267D-03  0.934250D-02  0.000000D+00  0.778478D-02
     12  0.261984D-02  0.135779D-01  0.114919D-01  0.000000D+00  0.844082D-02
     13  0.130572D-02 -0.182602D-02  0.122823D-02  0.000000D+00 -0.106548D-02
     14  0.161805D-02  0.357308D-02 -0.811252D-02  0.000000D+00 -0.230189D-01
     15  0.440680D-04  0.707594D-04  0.165700D-02  0.000000D+00 -0.327684D-02
                6             7             8             9            10 
      6  0.516068D+00
      7  0.235174D-03  0.170121D+00
      8  0.134756D-03  0.167137D-01  0.124057D+00
      9 -0.681706D-04  0.180864D-02  0.788655D-03  0.317920D-01
     10 -0.254710D-03  0.240008D-02  0.616036D-05  0.337399D-01  0.375761D-01
     11  0.597698D-02 -0.426490D-02 -0.130844D-02  0.244213D-02 -0.182061D-03
     12  0.122311D-02 -0.421464D-01 -0.377131D-01 -0.160032D-02  0.132915D-02
     13 -0.415777D-03  0.171362D-02 -0.147732D-02  0.120552D-01  0.165786D-01
     14  0.371472D-02 -0.871330D-02 -0.441832D-02  0.984740D-02  0.477382D-02
     15  0.108679D-02 -0.265895D-02 -0.321406D-02 -0.196425D-03  0.756501D-03
               11            12            13            14            15 
     11  0.761173D-01
     12 -0.235663D-02  0.848271D-01
     13 -0.500470D-02  0.586643D-02  0.126645D-01
     14 -0.720677D-02 -0.663204D-02 -0.839523D-02  0.493635D-01
     15 -0.786846D-02  0.300221D-02  0.198876D-02  0.743240D-02  0.451038D-02
 Final forces over variables, Energy=-1.32247870D+02:
 -9.67236318D-06 1.05744475D-05 2.68141678D-07-5.24982706D-22
 -8.63706468D-06-4.87059097D-05-2.86533146D-06 1.55211224D-06
 -1.38590046D-06 4.78608341D-07 8.66284029D-07 1.20095204D-05
 IRC-IRC-IRC-IRC-IRC-IRC-IRC-IRC-IRC-IRC-IRC-IRC-IRC-IRC-IRC-IRC-IRC-IRC
          ******** Start new reaction path calculation ********
 Supplied step size of   0.0300 bohr.
    Integration on MW PES will use step size of   0.0315 sqrt(amu)*bohr.
 Point Number:   0          Path Number:   1
 Calculating another point on the path.
 IRC-IRC-IRC-IRC-IRC-IRC-IRC-IRC-IRC-IRC-IRC-IRC-IRC-IRC-IRC-IRC-IRC-IRC
                          Input orientation:                          
 ---------------------------------------------------------------------
 Center     Atomic      Atomic             Coordinates (Angstroms)
 Number     Number       Type             X           Y           Z
 ---------------------------------------------------------------------
      1          7           0        0.205532    1.169879    0.080434
      2          1           0        0.204661    1.167780    1.095452
      3          1           0        1.177105    1.168217   -0.214691
      4          1           0       -0.273832    0.228601   -0.250141
      5          8           0       -0.287695   -1.098130   -0.089510
      6          1           0        0.602252   -1.391186   -0.327611
 ---------------------------------------------------------------------
                    Distance matrix (angstroms):
                    1          2          3          4          5
     1  N    0.000000
     2  H    1.015020   0.000000
     3  H    1.015409   1.631601   0.000000
     4  H    1.106831   1.709279   1.728974   0.000000
     5  O    2.327235   2.604016   2.701414   1.336492   0.000000
     6  H    2.623537   2.954910   2.625596   1.843159   0.966736
                    6
     6  H    0.000000
 Symmetry turned off by external request.
 Stoichiometry    H4NO(2)
 Framework group  C1[X(H4NO)]
 Deg. of freedom    12
 Full point group                 C1      NOp   1
 Rotational constants (GHZ):    168.5510088     10.8421985     10.5986534
 Standard basis: CC-pVTZ (5D, 7F)
   116 basis functions,   172 primitive gaussians,   130 cartesian basis functions
    10 alpha electrons        9 beta electrons
       nuclear repulsion energy        37.1368216841 Hartrees.
 NAtoms=    6 NActive=    6 NUniq=    6 SFac= 1.00D+00 NAtFMM=   60 NAOKFM=F Big=F
 Integral buffers will be    131072 words long.
 Regular integral format.
 Two-electron integral symmetry is turned off.
 Nuclear repulsion after empirical dispersion term =       37.1355484583 Hartrees.
 One-electron integrals computed using PRISM.
 NBasis=   116 RedAO= T EigKep=  1.70D-03  NBF=   116
 NBsUse=   116 1.00D-06 EigRej= -1.00D+00 NBFU=   116
 Initial guess from the checkpoint file:  "tmp.chk"
 B after Tr=     0.388146    2.210480    0.151778
         Rot=    1.000000   -0.000021    0.000042    0.000043 Ang=  -0.01 deg.
 Initial guess <Sx>= 0.0000 <Sy>= 0.0000 <Sz>= 0.5000 <S**2>= 0.7681 S= 0.5090
 ExpMin= 1.03D-01 ExpMax= 1.53D+04 ExpMxC= 5.22D+02 IAcc=2 IRadAn=         4 AccDes= 0.00D+00
 Harris functional with IExCor=  419 and IRadAn=       4 diagonalized for initial guess.
 HarFok:  IExCor=  419 AccDes= 0.00D+00 IRadAn=         4 IDoV= 1 UseB2=F ITyADJ=14
 ICtDFT=  3500011 ScaDFX=  1.000000  1.000000  1.000000  1.000000
 FoFCou: FMM=F IPFlag=           0 FMFlag=      100000 FMFlg1=           0
         NFxFlg=           0 DoJE=T BraDBF=F KetDBF=T FulRan=T
         wScrn=  0.000000 ICntrl=     500 IOpCl=  0 I1Cent=   200000004 NGrid=           0
         NMat0=    1 NMatS0=      1 NMatT0=    0 NMatD0=    1 NMtDS0=    0 NMtDT0=    0
 Symmetry not used in FoFCou.
 Keep R1 and R2 ints in memory in canonical form, NReq=48126363.
 Requested convergence on RMS density matrix=1.00D-08 within 128 cycles.
 Requested convergence on MAX density matrix=1.00D-06.
 Requested convergence on             energy=1.00D-06.
 No special actions if energy rises.
 Integral accuracy reduced to 1.0D-05 until final iterations.
 Initial convergence to 1.0D-05 achieved.  Increase integral accuracy.
 SCF Done:  E(UB2PLYPD3) =  -132.093885342     A.U. after   17 cycles
            NFock= 17  Conv=0.24D-08     -V/T= 2.0035
 <Sx>= 0.0000 <Sy>= 0.0000 <Sz>= 0.5000 <S**2>= 0.7673 S= 0.5086
 <L.S>= 0.000000000000E+00
 Annihilation of the first spin contaminant:
 S**2 before annihilation     0.7673,   after     0.7501
 DoSCS=T DFT=T ScalE2(SS,OS)=  0.270000  0.270000
 ExpMin= 1.03D-01 ExpMax= 1.53D+04 ExpMxC= 5.22D+02 IAcc=3 IRadAn=         5 AccDes= 0.00D+00
 HarFok:  IExCor=  205 AccDes= 0.00D+00 IRadAn=         5 IDoV=-2 UseB2=F ITyADJ=14
 ICtDFT= 12500011 ScaDFX=  1.000000  1.000000  1.000000  1.000000
 Range of M.O.s used for correlation:     3   116
 NBasis=   116 NAE=    10 NBE=     9 NFC=     2 NFV=     0
 NROrb=    114 NOA=     8 NOB=     7 NVA=   106 NVB=   107
 DoSCS=T DFT=T ScalE2(SS,OS)=  0.270000  0.270000
 Disk-based method using ON**2 memory for  8 occupieds at a time.
 Permanent disk used for amplitudes=     1475361 words.
 Estimated scratch disk usage=    31896488 words.
 Actual    scratch disk usage=    31372200 words.
 JobTyp=2 Pass  1:  I=   3 to  10 NPSUse= 10 ParTrn=T ParDer=T DoDerP=T.
 (rs|ai) integrals will be sorted in core.
 Actual    scratch disk usage=    31372200 words.
 JobTyp=3 Pass  1:  I=   3 to   9 NPSUse= 10 ParTrn=T ParDer=T DoDerP=T.
 (rs|ai) integrals will be sorted in core.
 Spin components of T(2) and E(2):
     alpha-alpha T2 =       0.2304794215D-01 E2=     -0.1989309366D-01
     alpha-beta  T2 =       0.1425997713D+00 E2=     -0.1160729150D+00
     beta-beta   T2 =       0.2875964568D-01 E2=     -0.1803694621D-01
 E2(B2PLYPD3) =    -0.1540029549D+00 E(B2PLYPD3) =    -0.13224788829665D+03
 G2DrvN: will do     7 centers at a time, making    1 passes.
 Calling FoFCou, ICntrl=  3107 FMM=F I1Cent=   0 AccDes= 0.00D+00.
 End of G2Drv F.D. properties file   721 does not exist.
 End of G2Drv F.D. properties file   722 does not exist.
 End of G2Drv F.D. properties file   788 does not exist.
          IDoAtm=111111
          Differentiating once with respect to electric field.
                with respect to dipole field.
          Differentiating once with respect to nuclear coordinates.
 Keep R1 and R2 ints in memory in canonical form, NReq=48077845.
          There are    21 degrees of freedom in the 1st order CPHF.  IDoFFX=6 NUNeed=    21.
     18 vectors produced by pass  0 Test12= 9.63D-15 4.76D-09 XBig12= 4.75D+01 5.60D+00.
 AX will form    18 AO Fock derivatives at one time.
     18 vectors produced by pass  1 Test12= 9.63D-15 4.76D-09 XBig12= 6.38D+00 7.24D-01.
     18 vectors produced by pass  2 Test12= 9.63D-15 4.76D-09 XBig12= 2.78D-01 1.30D-01.
     18 vectors produced by pass  3 Test12= 9.63D-15 4.76D-09 XBig12= 3.43D-03 1.46D-02.
     18 vectors produced by pass  4 Test12= 9.63D-15 4.76D-09 XBig12= 4.25D-05 1.35D-03.
     18 vectors produced by pass  5 Test12= 9.63D-15 4.76D-09 XBig12= 4.15D-07 1.09D-04.
     17 vectors produced by pass  6 Test12= 9.63D-15 4.76D-09 XBig12= 2.06D-09 6.01D-06.
      7 vectors produced by pass  7 Test12= 9.63D-15 4.76D-09 XBig12= 1.14D-11 5.02D-07.
      2 vectors produced by pass  8 Test12= 9.63D-15 4.76D-09 XBig12= 6.41D-14 5.33D-08.
 InvSVY:  IOpt=1 It=  1 EMax= 3.55D-15
 Solved reduced A of dimension   134 with    21 vectors.
 End of Minotr F.D. properties file   721 does not exist.
 End of Minotr F.D. properties file   722 does not exist.
 End of Minotr F.D. properties file   788 does not exist.
 MDV=  1048576000.
 DoSCS=T DFT=T ScalE2(SS,OS)=  0.270000  0.270000
 Form MO integral derivatives with frozen-active canonical formalism.
 Discarding MO integrals.
 Reordered first order wavefunction length =      6016755
 In DefCFB: NBatch=  1 ICI= 10 ICA=107 LFMax= 54
            Large arrays: LIAPS=   122027360 LIARS=    68159000 words.
 In DefCFB: NBatch=  1 ICI= 10 ICA=107 LFMax= 54
            Large arrays: LIAPS=   122027360 LIARS=    68159000 words.
 Semi-Direct transformation.
 ModeAB=           2 MOrb=            10 LenV=    1048016234
 LASXX=      7321660 LTotXX=     7321660 LenRXX=     7321660
 LTotAB=     7566390 MaxLAS=     9877400 LenRXY=     9877400
 NonZer=    14643320 LenScr=    22282240 LnRSAI=           0
 LnScr1=           0 LExtra=           0 Total=     39481300
 MaxDsk=          -1 SrtSym=           F ITran=            4
 JobTyp=1 Pass  1:  I=   1 to  10.
 (rs|ai) integrals will be sorted in core.
 ModeAB=           2 MOrb=             9 LenV=    1048016234
 LASXX=      6628032 LTotXX=     6628032 LenRXX=     8889660
 LTotAB=     5716368 MaxLAS=     8889660 LenRXY=     5716368
 NonZer=    13256064 LenScr=    20316160 LnRSAI=           0
 LnScr1=           0 LExtra=           0 Total=     34922188
 MaxDsk=          -1 SrtSym=           F ITran=            4
 JobTyp=2 Pass  1:  I=   1 to   9.
 (rs|ai) integrals will be sorted in core.
 DoSCS=T DFT=T ScalE2(SS,OS)=  0.270000  0.270000
 Spin components of T(2) and E(2):
     alpha-alpha T2 =       0.2304794215D-01 E2=     -0.1989309366D-01
     alpha-beta  T2 =       0.1425997713D+00 E2=     -0.1160729150D+00
     beta-beta   T2 =       0.2875964568D-01 E2=     -0.1803694621D-01
 E2(B2PLYPD3) =    -0.1540029549D+00 E(B2PLYPD3) =    -0.13224788829665D+03
          IDoAtm=111111
          Differentiating once with respect to electric field.
                with respect to dipole field.
          Differentiating once with respect to nuclear coordinates.
 Keep R1 and R2 ints in memory in canonical form, NReq=48077044.
          There are     1 degrees of freedom in the 1st order CPHF.  IDoFFX=0 NUNeed=     1.
 LinEq1:  Iter=  0 NonCon=     1 RMS=1.97D-03 Max=6.83D-02 NDo=     1
 AX will form     1 AO Fock derivatives at one time.
 LinEq1:  Iter=  1 NonCon=     1 RMS=5.15D-04 Max=5.04D-03 NDo=     1
 LinEq1:  Iter=  2 NonCon=     1 RMS=5.92D-04 Max=1.44D-02 NDo=     1
 LinEq1:  Iter=  3 NonCon=     1 RMS=1.72D-04 Max=2.13D-03 NDo=     1
 LinEq1:  Iter=  4 NonCon=     1 RMS=1.18D-04 Max=1.63D-03 NDo=     1
 LinEq1:  Iter=  5 NonCon=     1 RMS=4.72D-05 Max=1.35D-03 NDo=     1
 LinEq1:  Iter=  6 NonCon=     1 RMS=1.99D-05 Max=4.10D-04 NDo=     1
 LinEq1:  Iter=  7 NonCon=     1 RMS=5.46D-06 Max=6.59D-05 NDo=     1
 LinEq1:  Iter=  8 NonCon=     1 RMS=1.76D-06 Max=4.25D-05 NDo=     1
 LinEq1:  Iter=  9 NonCon=     1 RMS=5.09D-07 Max=7.00D-06 NDo=     1
 LinEq1:  Iter= 10 NonCon=     1 RMS=1.30D-07 Max=2.28D-06 NDo=     1
 LinEq1:  Iter= 11 NonCon=     1 RMS=3.34D-08 Max=3.48D-07 NDo=     1
 LinEq1:  Iter= 12 NonCon=     1 RMS=1.11D-08 Max=1.08D-07 NDo=     1
 LinEq1:  Iter= 13 NonCon=     1 RMS=2.27D-09 Max=2.11D-08 NDo=     1
 LinEq1:  Iter= 14 NonCon=     1 RMS=4.64D-10 Max=4.30D-09 NDo=     1
 LinEq1:  Iter= 15 NonCon=     1 RMS=1.10D-10 Max=1.03D-09 NDo=     1
 LinEq1:  Iter= 16 NonCon=     0 RMS=2.48D-11 Max=2.91D-10 NDo=     1
 Linear equations converged to 1.000D-10 1.000D-09 after    16 iterations.
 End of Minotr F.D. properties file   721 does not exist.
 End of Minotr F.D. properties file   722 does not exist.
 End of Minotr F.D. properties file   788 does not exist.
 Symmetrizing basis deriv contribution to polar:
 IMax=3 JMax=2 DiffMx= 0.00D+00
 G2DrvN: will do     7 centers at a time, making    1 passes.
 Calling FoFCou, ICntrl=  3107 FMM=F I1Cent=   0 AccDes= 0.00D+00.
 End of G2Drv F.D. properties file   721 does not exist.
 End of G2Drv F.D. properties file   722 does not exist.
 End of G2Drv F.D. properties file   788 does not exist.
 DoSCS=T DFT=T ScalE2(SS,OS)=  0.270000  0.270000
 R2 and R3 integrals will be kept in memory, NReq=    74453740.
 DD1Dir will call FoFMem   1 times, MxPair=       262
 NAB=    90 NAA=    45 NBB=    36.
 Discarding MO integrals.
 Use density number 2.
 Entering OneElI...
 Calculate overlap and kinetic energy integrals
    NBasis = 130  MinDer = 2  MaxDer = 2
 Requested accuracy = 0.1000D-12
 PrsmSu:  NPrtUS=  10 ThrOK=T IAlg=1 NPAlg=1 LenDen=           0.
 Prism:   IPart=     0 DynPar=F LinDyn=F Incr=           1.
 PRISM was handed   104822400 working-precision words and   990 shell-pairs
 PRISM was handed   104822400 working-precision words and   990 shell-pairs
 PRISM was handed   104822400 working-precision words and   990 shell-pairs
 PRISM was handed   104822400 working-precision words and   990 shell-pairs
 PRISM was handed   104822400 working-precision words and   990 shell-pairs
 PRISM was handed   104822400 working-precision words and   990 shell-pairs
 PRISM was handed   104822400 working-precision words and   990 shell-pairs
 PRISM was handed   104822400 working-precision words and   990 shell-pairs
 PRISM was handed   104822400 working-precision words and   990 shell-pairs
 PRISM was handed   104822400 working-precision words and   990 shell-pairs
 IPart=  8 NShTot=          81 NBatch=          20 AvBLen=         4.1
 IPart=  6 NShTot=          87 NBatch=          23 AvBLen=         3.8
 IPart=  9 NShTot=          81 NBatch=          20 AvBLen=         4.1
 IPart=  7 NShTot=          86 NBatch=          22 AvBLen=         3.9
 IPart=  4 NShTot=          98 NBatch=          25 AvBLen=         3.9
 IPart=  3 NShTot=         108 NBatch=          29 AvBLen=         3.7
 IPart=  5 NShTot=          96 NBatch=          24 AvBLen=         4.0
 IPart=  2 NShTot=         109 NBatch=          30 AvBLen=         3.6
 IPart=  1 NShTot=         119 NBatch=          38 AvBLen=         3.1
 IPart=  0 NShTot=         125 NBatch=          44 AvBLen=         2.8
 PrSmSu:  NxtVal=             11.
 Entering OneElI...
 Calculate potential energy integrals
    NBasis = 130  MinDer = 2  MaxDer = 2
 Requested accuracy = 0.1000D-12
 PrsmSu:  NPrtUS=  10 ThrOK=T IAlg=1 NPAlg=1 LenDen=           0.
 Prism:   IPart=     0 DynPar=F LinDyn=F Incr=           5.
 PRISM was handed   104825206 working-precision words and   989 shell-pairs
 PRISM was handed   104825206 working-precision words and   989 shell-pairs
 PRISM was handed   104825206 working-precision words and   989 shell-pairs
 PRISM was handed   104825206 working-precision words and   989 shell-pairs
 PRISM was handed   104825206 working-precision words and   989 shell-pairs
 PRISM was handed   104825206 working-precision words and   989 shell-pairs
 PRISM was handed   104825206 working-precision words and   989 shell-pairs
 PRISM was handed   104825206 working-precision words and   989 shell-pairs
 PRISM was handed   104825206 working-precision words and   989 shell-pairs
 PRISM was handed   104825206 working-precision words and   989 shell-pairs
 IPart=  4 NShTot=         582 NBatch=          97 AvBLen=         6.0
 IPart=  8 NShTot=         498 NBatch=          83 AvBLen=         6.0
 IPart=  6 NShTot=         528 NBatch=          88 AvBLen=         6.0
 IPart=  0 NShTot=         768 NBatch=         128 AvBLen=         6.0
 IPart=  3 NShTot=         642 NBatch=         107 AvBLen=         6.0
 IPart=  2 NShTot=         648 NBatch=         108 AvBLen=         6.0
 IPart=  1 NShTot=         714 NBatch=         119 AvBLen=         6.0
 IPart=  7 NShTot=         504 NBatch=          84 AvBLen=         6.0
 IPart=  5 NShTot=         558 NBatch=          93 AvBLen=         6.0
 IPart=  9 NShTot=         492 NBatch=          82 AvBLen=         6.0
 PrSmSu:  NxtVal=             51.
 Polarizability after L701:
                1             2             3 
      1  0.181830D+02
      2  0.698901D+01  0.584784D+02
      3 -0.481582D-01  0.478624D+01  0.156214D+02
 Dipole Derivatives after L701:
                 1             2             3             4             5 
      1  -0.189230D+00  0.506522D-01  0.112006D-01  0.189375D+00 -0.603870D-02
      2   0.408069D+00 -0.298006D+00  0.298557D+00 -0.887282D-01  0.371479D+00
      3  -0.292486D-02  0.347265D-01 -0.235264D+00 -0.361372D-01  0.475278D-01
                 6             7             8             9            10 
      1  -0.483801D-03  0.532986D-01  0.635846D-01  0.105714D-01  0.115835D+00
      2   0.125940D+00  0.974227D-01  0.358256D+00 -0.999390D-01 -0.527700D+00
      3   0.771677D-01  0.452220D-01 -0.318379D-01  0.190377D+00 -0.728846D-02
                11            12            13            14            15 
      1  -0.237648D+00 -0.601116D-02 -0.240585D+00  0.941980D-01 -0.733597D-01
      2  -0.101545D+01 -0.280648D+00  0.219826D+00  0.299358D+00 -0.480690D-01
      3  -0.131624D+00  0.159134D+00 -0.468199D-01  0.832547D-01 -0.483979D+00
                16            17            18 
      1   0.713062D-01  0.352521D-01  0.580827D-01
      2  -0.108889D+00  0.284360D+00  0.415980D-02
      3   0.479484D-01 -0.204677D-02  0.292564D+00
 Hessian after L701:
                1             2             3             4             5 
      1  0.689570D+01
      2 -0.103645D+01  0.576057D+01
      3  0.440415D+00 -0.561333D+00  0.671990D+01
      4 -0.327998D+01  0.558259D-02  0.523230D-01  0.331147D+01
[...]
     15 -0.121483D-03  0.195043D-03  0.682388D-03  0.000000D+00 -0.269765D-02
                6             7             8             9            10 
      6  0.513508D+00
      7  0.319919D-03  0.180812D+00
      8  0.535338D-02  0.272295D-01  0.176162D+00
      9 -0.423443D-02  0.513545D-03  0.146378D-02  0.218064D-01
     10 -0.407606D-02  0.575806D-03  0.166776D-03  0.229052D-01  0.254532D-01
     11 -0.137219D-01 -0.321374D-02 -0.640100D-04  0.344381D-02  0.252457D-02
     12 -0.139089D-01 -0.620907D-01 -0.489404D-01 -0.841221D-03  0.171518D-02
     13 -0.712618D-03  0.260617D-03 -0.240983D-02  0.764597D-02  0.111345D-01
     14  0.206185D-01 -0.730271D-02 -0.250189D-02  0.613370D-02  0.241735D-02
     15  0.900944D-02 -0.275691D-02 -0.354917D-02 -0.783922D-03  0.394959D-03
               11            12            13            14            15 
     11  0.555896D-01
     12  0.427707D-02  0.117397D+00
     13 -0.111055D-02  0.525718D-02  0.935733D-02
     14 -0.127647D-01 -0.495753D-02 -0.537873D-02  0.365011D-01
     15 -0.720476D-02  0.280442D-02  0.232604D-02  0.661247D-02  0.473265D-02
 Frcnst in PutFF: 
                1             2             3             4             5 
      1  0.458725D+00
      2 -0.297462D-02  0.456600D+00
      3  0.234724D-01  0.238372D-01  0.180812D+00
      4 -0.569330D-02 -0.549684D-02  0.165386D-02  0.341521D+00
      5  0.235099D-01 -0.786291D-02  0.272295D-01  0.540742D-01  0.176162D+00
      6  0.265148D-02  0.200295D-01 -0.620907D-01  0.710468D-01 -0.489404D-01
      7  0.566007D-03  0.113225D-02  0.319919D-03  0.443376D-03  0.535338D-02
      8  0.244675D-02 -0.112355D-02  0.575806D-03 -0.405114D-02  0.166776D-03
      9  0.777562D-03  0.226346D-02 -0.730271D-02 -0.680101D-02 -0.250189D-02
     10  0.941340D-04  0.415523D-03 -0.321374D-02  0.797791D-02 -0.640100D-04
     11  0.235513D-02  0.316579D-02 -0.252182D-02  0.858298D-01  0.121390D-01
     12 -0.121483D-03  0.195043D-03 -0.275691D-02  0.682388D-03 -0.354917D-02
                6             7             8             9            10 
      6  0.117397D+00
      7 -0.139089D-01  0.513508D+00
      8  0.171518D-02 -0.407606D-02  0.254532D-01
      9 -0.495753D-02  0.206185D-01  0.241735D-02  0.365011D-01
     10  0.427707D-02 -0.137219D-01  0.252457D-02 -0.127647D-01  0.555896D-01
     11  0.179156D-01 -0.499464D-02 -0.885535D-02 -0.158690D-01  0.570380D-02
     12  0.280442D-02  0.900944D-02  0.394959D-03  0.661247D-02 -0.720476D-02
               11            12 
     11  0.288089D-01
     12 -0.269765D-02  0.473265D-02
 Force constants in internal coordinates: 
                1             2             3             4             5 
      1  0.458725D+00
      2 -0.297462D-02  0.456600D+00
      3 -0.569330D-02 -0.549684D-02  0.341521D+00
      4  0.000000D+00  0.000000D+00  0.000000D+00  0.000000D+00
      5  0.235513D-02  0.316579D-02  0.858298D-01  0.000000D+00  0.288089D-01
      6  0.566007D-03  0.113225D-02  0.443376D-03  0.000000D+00 -0.499464D-02
      7  0.234724D-01  0.238372D-01  0.165386D-02  0.000000D+00 -0.252182D-02
      8  0.235099D-01 -0.786291D-02  0.540742D-01  0.000000D+00  0.121390D-01
      9  0.237168D-02 -0.661633D-03 -0.521700D-02  0.000000D+00 -0.947956D-02
     10  0.244675D-02 -0.112355D-02 -0.405114D-02  0.000000D+00 -0.885535D-02
     11  0.941340D-04  0.415523D-03  0.797791D-02  0.000000D+00  0.570380D-02
     12  0.265148D-02  0.200295D-01  0.710468D-01  0.000000D+00  0.179156D-01
     13  0.749306D-03 -0.115190D-02  0.119765D-02  0.000000D+00 -0.101870D-02
     14  0.777562D-03  0.226346D-02 -0.680101D-02  0.000000D+00 -0.158690D-01
     15 -0.121483D-03  0.195043D-03  0.682388D-03  0.000000D+00 -0.269765D-02
                6             7             8             9            10 
      6  0.513508D+00
      7  0.319919D-03  0.180812D+00
      8  0.535338D-02  0.272295D-01  0.176162D+00
      9 -0.423443D-02  0.513545D-03  0.146378D-02  0.218064D-01
     10 -0.407606D-02  0.575806D-03  0.166776D-03  0.229052D-01  0.254532D-01
     11 -0.137219D-01 -0.321374D-02 -0.640100D-04  0.344381D-02  0.252457D-02
     12 -0.139089D-01 -0.620907D-01 -0.489404D-01 -0.841221D-03  0.171518D-02
     13 -0.712618D-03  0.260617D-03 -0.240983D-02  0.764597D-02  0.111345D-01
     14  0.206185D-01 -0.730271D-02 -0.250189D-02  0.613370D-02  0.241735D-02
     15  0.900944D-02 -0.275691D-02 -0.354917D-02 -0.783922D-03  0.394959D-03
               11            12            13            14            15 
     11  0.555896D-01
     12  0.427707D-02  0.117397D+00
     13 -0.111055D-02  0.525718D-02  0.935733D-02
     14 -0.127647D-01 -0.495753D-02 -0.537873D-02  0.365011D-01
     15 -0.720476D-02  0.280442D-02  0.232604D-02  0.661247D-02  0.473265D-02
 Final forces over variables, Energy=-1.32248869D+02:
 -6.66691950D-05 5.45645852D-06 4.33276404D-03-2.51964440D-20
  7.14789227D-03 1.05238301D-04 4.11851886D-04-1.25589156D-03
 -2.85004676D-04-6.39090547D-05-1.86301910D-04-7.65355087D-04
 IRC-IRC-IRC-IRC-IRC-IRC-IRC-IRC-IRC-IRC-IRC-IRC-IRC-IRC-IRC-IRC-IRC-IRC
 Pt 10 Step number   1 out of a maximum of  20
 Modified Bulirsch-Stoer Extrapolation Cycles:
    EPS =    0.000010000000000
 Maximum DWI energy   std dev =  0.000000029 at pt    45
 Maximum DWI gradient std dev =  0.001960115 at pt    47
 CORRECTOR INTEGRATION CONVERGENCE:
   Recorrection delta-x convergence threshold:    0.010000
   Delta-x Convergence Met
 Point Number:  10          Path Number:   1
   CHANGE IN THE REACTION COORDINATE =    0.03148
   NET REACTION COORDINATE UP TO THIS POINT =    0.31479
  # OF POINTS ALONG THE PATH =  10
  # OF STEPS =   1

 Maximum number of steps reached.
 Calculation of REVERSE path complete.
 Reaction path calculation complete.
 
 Energies reported relative to the TS energy of        -132.247870
 --------------------------------------------------------------------------
    Summary of reaction path following
 --------------------------------------------------------------------------
                        Energy    RxCoord
   1                   -0.00100  -0.31479
   2                   -0.00086  -0.28331
   3                   -0.00073  -0.25183
   4                   -0.00059  -0.22034
   5                   -0.00047  -0.18886
   6                   -0.00035  -0.15738
   7                   -0.00024  -0.12590
   8                   -0.00014  -0.09443
   9                   -0.00007  -0.06295
  10                   -0.00002  -0.03148
  11                    0.00000   0.00000
 --------------------------------------------------------------------------
 
 Total number of points:                   10
 Total number of gradient calculations:    11
 Total number of Hessian calculations:     11
 IRC-IRC-IRC-IRC-IRC-IRC-IRC-IRC-IRC-IRC-IRC-IRC-IRC-IRC-IRC-IRC-IRC-IRC
                          Input orientation:                          
 ---------------------------------------------------------------------
 Center     Atomic      Atomic             Coordinates (Angstroms)
 Number     Number       Type             X           Y           Z
 ---------------------------------------------------------------------
      1          7           0        0.209009    1.179822    0.082205
      2          1           0        0.197530    1.144115    1.093343
      3          1           0        1.173995    1.154672   -0.222336
      4          1           0       -0.307465    0.345560   -0.290444
      5          8           0       -0.288361   -1.111934   -0.088245
      6          1           0        0.608386   -1.390014   -0.322234
 ---------------------------------------------------------------------
                    Distance matrix (angstroms):
                    1          2          3          4          5
     1  N    0.000000
     2  H    1.011833   0.000000
     3  H    1.012213   1.638477   0.000000
     4  H    1.049574   1.675582   1.689386   0.000000
     5  O    2.351292   2.592681   2.700735   1.471577   0.000000
     6  H    2.631944   2.931633   2.608701   1.962654   0.967592
                    6
     6  H    0.000000
 Symmetry turned off by external request.
 Stoichiometry    H4NO(2)
 Framework group  C1[X(H4NO)]
 Deg. of freedom    12
 Full point group                 C1      NOp   1
 Rotational constants (GHZ):    164.2314429     10.6514933     10.4251571

 **********************************************************************

            Population analysis using the SCF density.

 **********************************************************************

 Alpha  occ. eigenvalues --  -19.77765 -14.83017  -1.16433  -0.98500  -0.60316
 Alpha  occ. eigenvalues --   -0.55035  -0.53506  -0.45997  -0.41839  -0.34353
 Alpha virt. eigenvalues --    0.06026   0.11763   0.15106   0.21250   0.37497
 Alpha virt. eigenvalues --    0.38570   0.45886   0.49315   0.51417   0.57665
 Alpha virt. eigenvalues --    0.58077   0.59573   0.62887   0.66000   0.67508
 Alpha virt. eigenvalues --    0.73936   0.75738   0.82104   0.87974   1.01155
 Alpha virt. eigenvalues --    1.07309   1.09668   1.14385   1.18420   1.32716
 Alpha virt. eigenvalues --    1.37509   1.38301   1.43097   1.56973   1.60038
 Alpha virt. eigenvalues --    1.63155   1.67028   1.75805   1.87737   1.89405
 Alpha virt. eigenvalues --    1.98153   2.03857   2.17924   2.42081   2.50875
 Alpha virt. eigenvalues --    2.63269   2.69787   3.18539   3.20841   3.25270
 Alpha virt. eigenvalues --    3.27807   3.28798   3.31097   3.32370   3.33578
 Alpha virt. eigenvalues --    3.39221   3.47967   3.54048   3.55752   3.59458
 Alpha virt. eigenvalues --    3.60626   3.67202   3.74000   3.79612   3.81573
 Alpha virt. eigenvalues --    3.84369   3.86124   3.88639   3.92877   4.03913
 Alpha virt. eigenvalues --    4.06882   4.13473   4.16561   4.18790   4.25987
 Alpha virt. eigenvalues --    4.28978   4.32673   4.36131   4.42796   4.58506
 Alpha virt. eigenvalues --    4.62489   4.70191   4.94728   5.01473   5.07836
 Alpha virt. eigenvalues --    5.17694   5.34839   5.39512   5.47421   5.53002
 Alpha virt. eigenvalues --    5.60393   5.64769   5.80402   5.86983   5.96904
 Alpha virt. eigenvalues --    6.09086   6.10252   6.18887   6.38672   6.54784
 Alpha virt. eigenvalues --    6.60428   6.63495   6.71641   6.80113   6.84599
 Alpha virt. eigenvalues --    6.93856   6.97488   7.19125   7.42113  10.84653
 Alpha virt. eigenvalues --   13.84295
  Beta  occ. eigenvalues --  -19.75059 -14.82280  -1.08073  -0.95962  -0.56862
  Beta  occ. eigenvalues --   -0.54197  -0.49795  -0.39211  -0.32549
  Beta virt. eigenvalues --   -0.05726   0.06514   0.12491   0.15281   0.21613
  Beta virt. eigenvalues --    0.37478   0.38842   0.46579   0.50291   0.53067
  Beta virt. eigenvalues --    0.58241   0.59479   0.60172   0.63607   0.67137
  Beta virt. eigenvalues --    0.70229   0.75640   0.77355   0.82602   0.88952
  Beta virt. eigenvalues --    1.01267   1.07618   1.10149   1.14952   1.19901
  Beta virt. eigenvalues --    1.33476   1.38456   1.39715   1.44684   1.58692
  Beta virt. eigenvalues --    1.60477   1.64594   1.67657   1.77635   1.89298
  Beta virt. eigenvalues --    1.91970   2.01419   2.05055   2.20530   2.42345
  Beta virt. eigenvalues --    2.51017   2.63691   2.70873   3.19746   3.21229
  Beta virt. eigenvalues --    3.26891   3.28088   3.29067   3.31353   3.32965
  Beta virt. eigenvalues --    3.34197   3.40643   3.47996   3.54396   3.57891
  Beta virt. eigenvalues --    3.59906   3.61005   3.67652   3.74061   3.79826
  Beta virt. eigenvalues --    3.81857   3.84602   3.86602   3.89367   3.93232
  Beta virt. eigenvalues --    4.04203   4.07502   4.14287   4.17005   4.19273
  Beta virt. eigenvalues --    4.26761   4.29951   4.33349   4.36088   4.44224
  Beta virt. eigenvalues --    4.60775   4.64919   4.70788   4.96618   5.02907
  Beta virt. eigenvalues --    5.10351   5.18797   5.37508   5.41294   5.49876
  Beta virt. eigenvalues --    5.56047   5.62954   5.67635   5.81540   5.87976
  Beta virt. eigenvalues --    5.98123   6.09750   6.10888   6.20094   6.42288
  Beta virt. eigenvalues --    6.57385   6.66401   6.68861   6.75864   6.81960
  Beta virt. eigenvalues --    6.86348   6.94741   6.99251   7.22213   7.47468
  Beta virt. eigenvalues --   10.87126  13.84875
          Condensed to atoms (all electrons):
               1          2          3          4          5          6
     1  N    6.354962   0.385486   0.386985   0.357690  -0.053943   0.018269
     2  H    0.385486   0.517740  -0.044393  -0.036153   0.005180   0.000165
     3  H    0.386985  -0.044393   0.533627  -0.035234   0.003383   0.002210
     4  H    0.357690  -0.036153  -0.035234   0.437630   0.073194  -0.017533
     5  O   -0.053943   0.005180   0.003383   0.073194   7.996649   0.300508
     6  H    0.018269   0.000165   0.002210  -0.017533   0.300508   0.467764
          Atomic-Atomic Spin Densities.
               1          2          3          4          5          6
     1  N    0.286093   0.001110   0.000698   0.012621  -0.065250   0.001828
     2  H    0.001110  -0.010255   0.000504   0.001092   0.000643  -0.000087
     3  H    0.000698   0.000504  -0.009953   0.000304   0.002385  -0.000435
     4  H    0.012621   0.001092   0.000304  -0.025969  -0.020555   0.001784
     5  O   -0.065250   0.000643   0.002385  -0.020555   0.907735  -0.000555
     6  H    0.001828  -0.000087  -0.000435   0.001784  -0.000555  -0.019823
 Mulliken charges and spin densities:
               1          2
     1  N   -0.449449   0.237099
     2  H    0.171977  -0.006993
     3  H    0.153422  -0.006496
     4  H    0.220405  -0.030723
     5  O   -0.324972   0.824402
     6  H    0.228617  -0.017288
 Sum of Mulliken charges =  -0.00000   1.00000
 Mulliken charges and spin densities with hydrogens summed into heavy atoms:
               1          2
     1  N    0.096355   0.192886
     5  O   -0.096355   0.807114
 APT charges:
               1
     1  N   -0.377852
     2  H    0.201029
     3  H    0.185394
     4  H   -0.168613
     5  O   -0.065930
     6  H    0.225972
 Sum of APT charges =  -0.00000
 APT charges with hydrogens summed into heavy atoms:
               1
     1  N   -0.160042
     5  O    0.160042
 Electronic spatial extent (au):  <R**2>=            131.8911
 Charge=             -0.0000 electrons
 Dipole moment (field-independent basis, Debye):
    X=              2.2745    Y=             -0.7406    Z=              0.1838  Tot=              2.3991
 Quadrupole moment (field-independent basis, Debye-Ang):
   XX=            -11.6797   YY=            -15.2027   ZZ=            -12.5463
   XY=             -0.6723   XZ=             -0.7165   YZ=              1.9249
 Traceless Quadrupole moment (field-independent basis, Debye-Ang):
   XX=              1.4632   YY=             -2.0598   ZZ=              0.5966
   XY=             -0.6723   XZ=             -0.7165   YZ=              1.9249
 Octapole moment (field-independent basis, Debye-Ang**2):
  XXX=              0.8164  YYY=            -13.3098  ZZZ=              1.5428  XYY=              4.1490
  XXY=             -0.8569  XXZ=             -0.9032  XZZ=              0.0198  YZZ=              0.3605
  YYZ=              0.3363  XYZ=              0.4072
 Hexadecapole moment (field-independent basis, Debye-Ang**3):
 XXXX=            -18.8045 YYYY=           -123.4845 ZZZZ=            -14.7921 XXXY=             -9.0702
 XXXZ=             -1.7197 YYYX=            -11.4615 YYYZ=             -0.8867 ZZZX=             -0.5521
 ZZZY=             -3.0249 XXYY=            -19.9946 XXZZ=             -6.3965 YYZZ=            -21.1083
 XXYZ=             -1.9535 YYXZ=             -1.2719 ZZXY=             -3.5533
 N-N= 3.691646598195D+01 E-N=-3.852627703211D+02  KE= 1.316762303275D+02
  Exact polarizability:  18.081   6.705  57.840  -0.082   4.503  15.454
 Approx polarizability:  19.154   3.012  33.969  -0.848   1.772  16.022
                          Isotropic Fermi Contact Couplings
        Atom                 a.u.       MegaHertz       Gauss      10(-4) cm-1
     1  N(14)             -0.03081      -9.95509      -3.55222      -3.32066
     2  H(1)              -0.00463     -20.71547      -7.39179      -6.90994
     3  H(1)              -0.00503     -22.49108      -8.02538      -7.50222
     4  H(1)              -0.00700     -31.26835     -11.15732     -10.43000
     5  O(17)              0.03523     -21.35603      -7.62036      -7.12360
     6  H(1)              -0.01123     -50.18725     -17.90806     -16.74066
 --------------------------------------------------------
       Center         ----  Spin Dipole Couplings  ----
                      3XX-RR        3YY-RR        3ZZ-RR
 --------------------------------------------------------
     1   Atom       -0.463608      0.923238     -0.459630
     2   Atom       -0.043762     -0.002840      0.046603
     3   Atom        0.037615     -0.002971     -0.034644
     4   Atom       -0.033657      0.091364     -0.057708
     5   Atom       -1.009966      2.424488     -1.414521
     6   Atom        0.100875     -0.012217     -0.088658
 --------------------------------------------------------
                        XY            XZ            YZ
 --------------------------------------------------------
     1   Atom       -0.051034     -0.008509     -0.055288
     2   Atom        0.001127     -0.002798      0.012089
     3   Atom        0.009788     -0.027768     -0.003321
     4   Atom        0.055713      0.038240      0.024664
     5   Atom        1.402222      0.242107      0.678171
     6   Atom       -0.046114     -0.049883      0.030525
 --------------------------------------------------------


 ---------------------------------------------------------------------------------
              Anisotropic Spin Dipole Couplings in Principal Axis System
 ---------------------------------------------------------------------------------

       Atom             a.u.   MegaHertz   Gauss  10(-4) cm-1        Axes

              Baa    -0.4743   -18.294    -6.528    -6.102  0.7641  0.0533  0.6429
     1 N(14)  Bbb    -0.4530   -17.470    -6.234    -5.827 -0.6441  0.0068  0.7649
              Bcc     0.9273    35.763    12.761    11.929 -0.0364  0.9986 -0.0396
 
              Baa    -0.0439   -23.426    -8.359    -7.814  0.9986 -0.0380  0.0359
     2 H(1)   Bbb    -0.0056    -2.967    -1.059    -0.990  0.0451  0.9737 -0.2233
              Bcc     0.0495    26.393     9.418     8.804 -0.0265  0.2246  0.9741
 
              Baa    -0.0441   -23.520    -8.393    -7.845  0.3218 -0.0001  0.9468
     3 H(1)   Bbb    -0.0050    -2.680    -0.956    -0.894 -0.1843  0.9809  0.0628
              Bcc     0.0491    26.200     9.349     8.739  0.9287  0.1947 -0.3156
 
              Baa    -0.0870   -46.438   -16.570   -15.490 -0.6441  0.0962  0.7589
     4 H(1)   Bbb    -0.0333   -17.758    -6.336    -5.923  0.6651 -0.4195  0.6177
              Bcc     0.1203    64.196    22.907    21.414  0.3778  0.9026  0.2062
 
              Baa    -1.5309   110.776    39.528    36.951 -0.0699 -0.1444  0.9870
     5 O(17)  Bbb    -1.5097   109.243    38.981    36.440  0.9409 -0.3383  0.0172
              Bcc     3.0407  -220.019   -78.508   -73.391  0.3314  0.9299  0.1596
 
              Baa    -0.1053   -56.163   -20.040   -18.734  0.1816 -0.2241  0.9575
     6 H(1)   Bbb    -0.0269   -14.366    -5.126    -4.792  0.3842  0.9125  0.1408
              Bcc     0.1322    70.529    25.166    23.526  0.9052 -0.3423 -0.2518
 

 ---------------------------------------------------------------------------------


 This type of calculation cannot be archived.


 MICHAEL FARADAY, ASKED BY A POLITICIAN WHAT GOOD
 HIS ELECTRICAL DISCOVERIES WERE, REPLIED 
 "AT PRESENT I DO NOT KNOW, BUT ONE DAY YOU WILL BE
 ABLE TO TAX THEM."
 Job cpu time:       0 days  6 hours 31 minutes  4.2 seconds.
 File lengths (MBytes):  RWF=   1659 Int=      0 D2E=      0 Chk=      5 Scr=      2
 Normal termination of Gaussian 09 at Tue Feb 26 22:00:30 2019.
