 Entering Gaussian System, Link 0=g09
 Input=geom.com
 Output=geom.log
 Initial command:
 /soft/gaussian/09-e.01/g09/l1.exe "/lcrc/project/CMRP/mechanisms/1_Rxns/1_Abst/1_OH/CH2O/b2/1_FTST/Gau-39958.inp" -scrdir="/lcrc/project/CMRP/mechanisms/1_Rxns/1_Abst/1_OH/CH2O/b2/1_FTST/"
 Entering Link 1 = /soft/gaussian/09-e.01/g09/l1.exe PID=     39959.
  
 Copyright (c) 1988,1990,1992,1993,1995,1998,2003,2009,2015,
            Gaussian, Inc.  All Rights Reserved.
  
 This is part of the Gaussian(R) 09 program.  It is based on
 the Gaussian(R) 03 system (copyright 2003, Gaussian, Inc.),
 the Gaussian(R) 98 system (copyright 1998, Gaussian, Inc.),
 the Gaussian(R) 94 system (copyright 1995, Gaussian, Inc.),
 the Gaussian 92(TM) system (copyright 1992, Gaussian, Inc.),
 the Gaussian 90(TM) system (copyright 1990, Gaussian, Inc.),
 the Gaussian 88(TM) system (copyright 1988, Gaussian, Inc.),
 the Gaussian 86(TM) system (copyright 1986, Carnegie Mellon
 University), and the Gaussian 82(TM) system (copyright 1983,
 Carnegie Mellon University). Gaussian is a federally registered
 trademark of Gaussian, Inc.
  
 This software contains proprietary and confidential information,
 including trade secrets, belonging to Gaussian, Inc.
  
 This software is provided under written license and may be
 used, copied, transmitted, or stored only in accord with that
 written license.
  
 The following legend is applicable only to US Government
 contracts under FAR:
  
                    RESTRICTED RIGHTS LEGEND
  
 Use, reproduction and disclosure by the US Government is
 subject to restrictions as set forth in subparagraphs (a)
 and (c) of the Commercial Computer Software - Restricted
 Rights clause in FAR 52.227-19.
  
 Gaussian, Inc.
 340 Quinnipiac St., Bldg. 40, Wallingford CT 06492
  
  
 ---------------------------------------------------------------
 Warning -- This program may not be used in any manner that
 competes with the business of Gaussian, Inc. or will provide
 assistance to any competitor of Gaussian, Inc.  The licensee
 of this program is prohibited from giving any competitor of
 Gaussian, Inc. access to this program.  By using this program,
 the user acknowledges that Gaussian, Inc. is engaged in the
 business of creating and licensing software in the field of
 computational chemistry and represents and warrants to the
 licensee that it is not a competitor of Gaussian, Inc. and that
 it will not use this program in any manner prohibited above.
 ---------------------------------------------------------------
  

 Cite this work as:
 Gaussian 09, Revision E.01,
 M. J. Frisch, G. W. Trucks, H. B. Schlegel, G. E. Scuseria, 
 M. A. Robb, J. R. Cheeseman, G. Scalmani, V. Barone, B. Mennucci, 
 G. A. Petersson, H. Nakatsuji, M. Caricato, X. Li, H. P. Hratchian, 
 A. F. Izmaylov, J. Bloino, G. Zheng, J. L. Sonnenberg, M. Hada, 
 M. Ehara, K. Toyota, R. Fukuda, J. Hasegawa, M. Ishida, T. Nakajima, 
 Y. Honda, O. Kitao, H. Nakai, T. Vreven, J. A. Montgomery, Jr., 
 J. E. Peralta, F. Ogliaro, M. Bearpark, J. J. Heyd, E. Brothers, 
 K. N. Kudin, V. N. Staroverov, T. Keith, R. Kobayashi, J. Normand, 
 K. Raghavachari, A. Rendell, J. C. Burant, S. S. Iyengar, J. Tomasi, 
 M. Cossi, N. Rega, J. M. Millam, M. Klene, J. E. Knox, J. B. Cross, 
 V. Bakken, C. Adamo, J. Jaramillo, R. Gomperts, R. E. Stratmann, 
 O. Yazyev, A. J. Austin, R. Cammi, C. Pomelli, J. W. Ochterski, 
 R. L. Martin, K. Morokuma, V. G. Zakrzewski, G. A. Voth, 
 P. Salvador, J. J. Dannenberg, S. Dapprich, A. D. Daniels, 
 O. Farkas, J. B. Foresman, J. V. Ortiz, J. Cioslowski, 
 and D. J. Fox, Gaussian, Inc., Wallingford CT, 2013.
 
 ******************************************
 Gaussian 09:  ES64L-G09RevE.01 30-Nov-2015
                 3-Jul-2019 
 ******************************************
 %mem=1000MW
 %chk=tmp
 %NProcShared= 6
 Will use up to    6 processors via shared memory.
 ----------------------------------------------------------------------
 # b2plypd3/cc-pvtz opt=(ts,calcfc,noeig,intern,maxcyc=50) # int=ultraf
 ine nosym scf=xqc freq
 ----------------------------------------------------------------------
 1/5=1,6=50,10=4,11=1,18=40,38=1/1,3;
 2/12=2,15=1,17=6,18=5,29=3,40=1/2;
 3/5=16,6=1,11=9,16=1,25=1,30=1,71=2,74=-60,75=-5,140=1/1,2,3;
 4//1;
 5/5=2,8=3,13=1,38=5/2,8;
 8/6=3,8=1,10=1,19=11,30=-1/1;
 9/15=3,16=-3/6;
 11/6=1,8=1,15=11,17=12,24=-1,27=1,28=-2,29=300,31=1,32=6,42=3/1,2,10;
 10/6=2,21=1,31=1/2;
 8/6=4,8=1,10=1,19=11,30=-1/11,4;
 10/5=1,20=4,31=1/2;
 11/12=2,14=11,16=1,17=2,28=-2,31=1,42=3/2,10,12;
 6/7=2,8=2,9=2,10=2/1;
 7/10=1,12=2,25=1,30=1,44=2/1,2,3,16;
 1/5=1,6=50,10=4,11=1,18=40/3(2);
 2/15=1,29=3/2;
 99//99;
 2/15=1,29=3/2;
 3/5=16,6=1,11=9,16=1,25=1,30=1,71=1,74=-60,75=-5/1,2,3;
 4/5=5,16=3,69=1/1;
 5/5=2,8=3,13=1,38=5/2,8;
 8/6=4,10=1/1;
 9/15=2,16=-3/6;
 10/5=1,31=1/2;
 7/12=2,30=1/1,2,3,16;
 1/5=1,6=50,11=1,18=40/3(-8);
 2/15=1,29=3/2;
 6/7=2,8=2,9=2,10=2/1;
 99//99;
 ------
 geom 0
 ------
 Symbolic Z-matrix:
 Charge =  0 Multiplicity = 2
 c1
 o1                   c1   R1
 h1                   c1   R2       o1   A1
 h2                   c1   R3       o1   A2       h1   D1       0
 X111                 4     2.       1     90.      2     180.     0
 O99                  4    rts      5    aabs1    1    babs1    0
 H100                 O99  R101     4    aabs2    5    babs2    0
       Variables:
  R1                    1.2017                   
  R2                    1.1065                   
  A1                  122.3974                   
  R3                    1.1223                   
  A2                  121.6562                   
  D1                  180.001                    
  R101                  0.978                    
  AABS1               118.4792                   
  BABS1               179.9449                   
  AABS2                95.4499                   
  RTS                   1.8103                   
  BABS2               180.0161                   
 

 GradGradGradGradGradGradGradGradGradGradGradGradGradGradGradGradGradGrad
 Berny optimization.
 Initialization pass.
                       ----------------------------
                       !    Initial Parameters    !
                       ! (Angstroms and Degrees)  !
 ----------------------                            ----------------------
 !      Name          Value   Derivative information (Atomic Units)     !
 ------------------------------------------------------------------------
 !       R1          1.2017   calculate D2E/DX2 analytically            !
 !       R2          1.1065   calculate D2E/DX2 analytically            !
 !       A1        122.3974   calculate D2E/DX2 analytically            !
 !       R3          1.1223   calculate D2E/DX2 analytically            !
 !       A2        121.6562   calculate D2E/DX2 analytically            !
 !       D1        180.001    calculate D2E/DX2 analytically            !
 !      R101         0.978    calculate D2E/DX2 analytically            !
 !      AABS1      118.4792   calculate D2E/DX2 analytically            !
 !      BABS1      179.9449   calculate D2E/DX2 analytically            !
 !      AABS2       95.4499   calculate D2E/DX2 analytically            !
 !       RTS         1.8103   calculate D2E/DX2 analytically            !
 !      BABS2      180.0161   calculate D2E/DX2 analytically            !
 ------------------------------------------------------------------------
 Trust Radius=3.00D-01 FncErr=1.00D-07 GrdErr=1.00D-07
 Number of steps in this run=     50 maximum allowed number of steps=    100.
 Search for a saddle point of order  1.
 GradGradGradGradGradGradGradGradGradGradGradGradGradGradGradGradGradGrad

 ---------------------------------------------------------------------------------------------------
                            Z-MATRIX (ANGSTROMS AND DEGREES)
   CD    Cent   Atom    N1       Length/X        N2       Alpha/Y        N3        Beta/Z          J
 ---------------------------------------------------------------------------------------------------
      1      1  C 
      2      2  O        1   1.201700(     1)
      3      3  H        1   1.106500(     2)      2  122.397(     7)
      4      4  H        1   1.122300(     3)      2  121.656(     8)      3  180.001(    12)      0
      5         X        4   2.000000(     4)      1   90.000(     9)      2  180.000(    13)      0
      6      5  O        4   1.810300(     5)      5  118.479(    10)      1  179.945(    14)      0
      7      6  H        6   0.978000(     6)      4   95.450(    11)      5  180.016(    15)      0
 ---------------------------------------------------------------------------------------------------
                         Z-Matrix orientation:                         
 ---------------------------------------------------------------------
 Center     Atomic      Atomic             Coordinates (Angstroms)
 Number     Number       Type             X           Y           Z
 ---------------------------------------------------------------------
      1          6           0        0.000000    0.000000    0.000000
      2          8           0        0.000000    0.000000    1.201700
      3          1           0        0.934276    0.000000   -0.592850
      4          1           0       -0.955316    0.000017   -0.589007
      5         -1           0        0.094326   -0.000002   -2.291432
      6          8           0       -2.762833    0.001578   -0.689334
      7          1           0       -2.909532    0.001487    0.277601
 ---------------------------------------------------------------------
                    Distance matrix (angstroms):
                    1          2          3          4          5
     1  C    0.000000
     2  O    1.201700   0.000000
     3  H    1.106500   2.023186   0.000000
     4  H    1.122300   2.029596   1.889596   0.000000
     5  X    2.293372   3.494405   1.894913   2.000000   0.000000
     6  O    2.847531   3.348023   3.698368   1.810300   3.275680
     7  H    2.922746   3.052760   3.941135   2.137749   3.952606
                    6          7
     6  O    0.000000
     7  H    0.978000   0.000000
 Symmetry turned off by external request.
 Stoichiometry    CH3O2(2)
 Framework group  C1[X(CH3O2)]
 Deg. of freedom    12
 Full point group                 C1      NOp   1
 Rotational constants (GHZ):     43.0453740      4.8707245      4.3756100
 Standard basis: CC-pVTZ (5D, 7F)
   132 basis functions,   207 primitive gaussians,   150 cartesian basis functions
    13 alpha electrons       12 beta electrons
       nuclear repulsion energy        60.9965565806 Hartrees.
 NAtoms=    6 NActive=    6 NUniq=    6 SFac= 1.00D+00 NAtFMM=   60 NAOKFM=F Big=F
 Integral buffers will be    131072 words long.
 Regular integral format.
 Two-electron integral symmetry is turned off.
 Nuclear repulsion after empirical dispersion term =       60.9950045762 Hartrees.
 One-electron integrals computed using PRISM.
 NBasis=   132 RedAO= T EigKep=  2.05D-03  NBF=   132
 NBsUse=   132 1.00D-06 EigRej= -1.00D+00 NBFU=   132
 ExpMin= 1.03D-01 ExpMax= 1.53D+04 ExpMxC= 5.22D+02 IAcc=3 IRadAn=         5 AccDes= 0.00D+00
 Harris functional with IExCor=  419 and IRadAn=       5 diagonalized for initial guess.
 HarFok:  IExCor=  419 AccDes= 0.00D+00 IRadAn=         5 IDoV= 1 UseB2=F ITyADJ=14
 ICtDFT=  3500011 ScaDFX=  1.000000  1.000000  1.000000  1.000000
 FoFCou: FMM=F IPFlag=           0 FMFlag=      100000 FMFlg1=           0
         NFxFlg=           0 DoJE=T BraDBF=F KetDBF=T FulRan=T
         wScrn=  0.000000 ICntrl=     500 IOpCl=  0 I1Cent=   200000004 NGrid=           0
         NMat0=    1 NMatS0=      1 NMatT0=    0 NMatD0=    1 NMtDS0=    0 NMtDT0=    0
 Symmetry not used in FoFCou.
 Initial guess <Sx>= 0.0000 <Sy>= 0.0000 <Sz>= 0.5000 <S**2>= 0.7500 S= 0.5000
 Keep R1 and R2 ints in memory in canonical form, NReq=79148207.
 Requested convergence on RMS density matrix=1.00D-08 within  64 cycles.
 Requested convergence on MAX density matrix=1.00D-06.
 Requested convergence on             energy=1.00D-06.
 No special actions if energy rises.
 Integral accuracy reduced to 1.0D-05 until final iterations.
 Initial convergence to 1.0D-05 achieved.  Increase integral accuracy.
 SCF Done:  E(UB2PLYPD3) =  -189.984722702     A.U. after   28 cycles
            NFock= 28  Conv=0.15D-08     -V/T= 2.0039
 <Sx>= 0.0000 <Sy>= 0.0000 <Sz>= 0.5000 <S**2>= 0.7554 S= 0.5027
 <L.S>= 0.000000000000E+00
 Annihilation of the first spin contaminant:
 S**2 before annihilation     0.7554,   after     0.7500
 QCSCF skips out because SCF is already converged.
 DoSCS=T DFT=T ScalE2(SS,OS)=  0.270000  0.270000
 ExpMin= 1.03D-01 ExpMax= 1.53D+04 ExpMxC= 5.22D+02 IAcc=3 IRadAn=         5 AccDes= 0.00D+00
 HarFok:  IExCor=  205 AccDes= 0.00D+00 IRadAn=         5 IDoV=-2 UseB2=F ITyADJ=14
 ICtDFT= 12500011 ScaDFX=  1.000000  1.000000  1.000000  1.000000
 Range of M.O.s used for correlation:     4   132
 NBasis=   132 NAE=    13 NBE=    12 NFC=     3 NFV=     0
 NROrb=    129 NOA=    10 NOB=     9 NVA=   119 NVB=   120
 DoSCS=T DFT=T ScalE2(SS,OS)=  0.270000  0.270000
 Disk-based method using ON**2 memory for 10 occupieds at a time.
 Permanent disk used for amplitudes=     3246558 words.
 Estimated scratch disk usage=    60834072 words.
 Actual    scratch disk usage=    59654424 words.
 JobTyp=2 Pass  1:  I=   4 to  13 NPSUse=  6 ParTrn=T ParDer=T DoDerP=T.
 (rs|ai) integrals will be sorted in core.
 Actual    scratch disk usage=    59654424 words.
 JobTyp=3 Pass  1:  I=   4 to  12 NPSUse=  6 ParTrn=T ParDer=T DoDerP=T.
 (rs|ai) integrals will be sorted in core.
 Spin components of T(2) and E(2):
     alpha-alpha T2 =       0.3181040582D-01 E2=     -0.2634091651D-01
     alpha-beta  T2 =       0.1846788967D+00 E2=     -0.1489782959D+00
     beta-beta   T2 =       0.2888212125D-01 E2=     -0.2158454699D-01
 E2(B2PLYPD3) =    -0.1969037594D+00 E(B2PLYPD3) =    -0.19018162646159D+03
 G2DrvN: will do     7 centers at a time, making    1 passes.
 Calling FoFCou, ICntrl=  3107 FMM=F I1Cent=   0 AccDes= 0.00D+00.
 End of G2Drv F.D. properties file   721 does not exist.
 End of G2Drv F.D. properties file   722 does not exist.
 End of G2Drv F.D. properties file   788 does not exist.
          IDoAtm=111111
          Differentiating once with respect to electric field.
                with respect to dipole field.
          Differentiating once with respect to nuclear coordinates.
 Keep R1 and R2 ints in memory in canonical form, NReq=79099665.
          There are    21 degrees of freedom in the 1st order CPHF.  IDoFFX=6 NUNeed=    21.
     18 vectors produced by pass  0 Test12= 1.42D-14 4.76D-09 XBig12= 2.46D+01 3.54D+00.
 AX will form    18 AO Fock derivatives at one time.
     18 vectors produced by pass  1 Test12= 1.42D-14 4.76D-09 XBig12= 3.82D+00 4.30D-01.
     18 vectors produced by pass  2 Test12= 1.42D-14 4.76D-09 XBig12= 1.23D-01 1.01D-01.
     18 vectors produced by pass  3 Test12= 1.42D-14 4.76D-09 XBig12= 3.03D-03 1.90D-02.
     18 vectors produced by pass  4 Test12= 1.42D-14 4.76D-09 XBig12= 3.24D-05 1.53D-03.
     18 vectors produced by pass  5 Test12= 1.42D-14 4.76D-09 XBig12= 2.37D-07 1.04D-04.
     18 vectors produced by pass  6 Test12= 1.42D-14 4.76D-09 XBig12= 1.33D-09 7.61D-06.
      9 vectors produced by pass  7 Test12= 1.42D-14 4.76D-09 XBig12= 1.00D-11 8.27D-07.
      3 vectors produced by pass  8 Test12= 1.42D-14 4.76D-09 XBig12= 6.31D-14 3.87D-08.
 InvSVY:  IOpt=1 It=  1 EMax= 1.78D-15
 Solved reduced A of dimension   138 with    21 vectors.
 End of Minotr F.D. properties file   721 does not exist.
 End of Minotr F.D. properties file   722 does not exist.
 End of Minotr F.D. properties file   788 does not exist.
 MDV=  1048576000.
 DoSCS=T DFT=T ScalE2(SS,OS)=  0.270000  0.270000
 Form MO integral derivatives with frozen-active canonical formalism.
 Discarding MO integrals.
 Reordered first order wavefunction length =     13180387
 In DefCFB: NBatch=  1 ICI= 13 ICA=120 LFMax= 40
            Large arrays: LIAPS=   236570400 LIARS=   114660000 words.
 In DefCFB: NBatch=  1 ICI= 13 ICA=120 LFMax= 40
            Large arrays: LIAPS=   236570400 LIARS=   114660000 words.
 Semi-Direct transformation.
 ModeAB=           2 MOrb=            13 LenV=    1047906467
 LASXX=     13926081 LTotXX=    13926081 LenRXX=    13926081
 LTotAB=    14378364 MaxLAS=    19433700 LenRXY=    19433700
 NonZer=    27852162 LenScr=    42074112 LnRSAI=           0
 LnScr1=           0 LExtra=           0 Total=     75433893
 MaxDsk=          -1 SrtSym=           F ITran=            4
 JobTyp=1 Pass  1:  I=   1 to  13.
 (rs|ai) integrals will be sorted in core.
 ModeAB=           2 MOrb=            12 LenV=    1047906467
 LASXX=     12923691 LTotXX=    12923691 LenRXX=    17938800
 LTotAB=    10838520 MaxLAS=    17938800 LenRXY=    10838520
 NonZer=    25847382 LenScr=    39321600 LnRSAI=           0
 LnScr1=           0 LExtra=           0 Total=     68098920
 MaxDsk=          -1 SrtSym=           F ITran=            4
 JobTyp=2 Pass  1:  I=   1 to  12.
 (rs|ai) integrals will be sorted in core.
 DoSCS=T DFT=T ScalE2(SS,OS)=  0.270000  0.270000
 Spin components of T(2) and E(2):
     alpha-alpha T2 =       0.3181040582D-01 E2=     -0.2634091651D-01
     alpha-beta  T2 =       0.1846788967D+00 E2=     -0.1489782959D+00
     beta-beta   T2 =       0.2888212125D-01 E2=     -0.2158454699D-01
 E2(B2PLYPD3) =    -0.1969037594D+00 E(B2PLYPD3) =    -0.19018162646159D+03
          IDoAtm=111111
          Differentiating once with respect to electric field.
                with respect to dipole field.
          Differentiating once with respect to nuclear coordinates.
 Keep R1 and R2 ints in memory in canonical form, NReq=79099369.
          There are     1 degrees of freedom in the 1st order CPHF.  IDoFFX=0 NUNeed=     1.
 LinEq1:  Iter=  0 NonCon=     1 RMS=1.74D-03 Max=7.41D-02 NDo=     1
 AX will form     1 AO Fock derivatives at one time.
 LinEq1:  Iter=  1 NonCon=     1 RMS=6.40D-04 Max=1.77D-02 NDo=     1
 LinEq1:  Iter=  2 NonCon=     1 RMS=3.15D-04 Max=6.08D-03 NDo=     1
 LinEq1:  Iter=  3 NonCon=     1 RMS=1.45D-04 Max=1.47D-03 NDo=     1
 LinEq1:  Iter=  4 NonCon=     1 RMS=6.42D-05 Max=1.46D-03 NDo=     1
 LinEq1:  Iter=  5 NonCon=     1 RMS=2.48D-05 Max=5.09D-04 NDo=     1
 LinEq1:  Iter=  6 NonCon=     1 RMS=1.39D-05 Max=2.27D-04 NDo=     1
 LinEq1:  Iter=  7 NonCon=     1 RMS=6.08D-06 Max=1.17D-04 NDo=     1
 LinEq1:  Iter=  8 NonCon=     1 RMS=1.81D-06 Max=3.62D-05 NDo=     1
 LinEq1:  Iter=  9 NonCon=     1 RMS=5.51D-07 Max=1.15D-05 NDo=     1
 LinEq1:  Iter= 10 NonCon=     1 RMS=1.65D-07 Max=2.48D-06 NDo=     1
 LinEq1:  Iter= 11 NonCon=     1 RMS=4.27D-08 Max=4.93D-07 NDo=     1
 LinEq1:  Iter= 12 NonCon=     1 RMS=9.62D-09 Max=2.19D-07 NDo=     1
 LinEq1:  Iter= 13 NonCon=     1 RMS=3.78D-09 Max=1.55D-07 NDo=     1
 LinEq1:  Iter= 14 NonCon=     1 RMS=1.31D-09 Max=3.11D-08 NDo=     1
 LinEq1:  Iter= 15 NonCon=     1 RMS=2.37D-10 Max=3.02D-09 NDo=     1
 LinEq1:  Iter= 16 NonCon=     0 RMS=4.10D-11 Max=5.22D-10 NDo=     1
 Linear equations converged to 1.000D-10 1.000D-09 after    16 iterations.
 End of Minotr F.D. properties file   721 does not exist.
 End of Minotr F.D. properties file   722 does not exist.
 End of Minotr F.D. properties file   788 does not exist.
 Symmetrizing basis deriv contribution to polar:
 IMax=3 JMax=2 DiffMx= 0.00D+00
 G2DrvN: will do     7 centers at a time, making    1 passes.
 Calling FoFCou, ICntrl=  3107 FMM=F I1Cent=   0 AccDes= 0.00D+00.
 End of G2Drv F.D. properties file   721 does not exist.
 End of G2Drv F.D. properties file   722 does not exist.
 End of G2Drv F.D. properties file   788 does not exist.
 DoSCS=T DFT=T ScalE2(SS,OS)=  0.270000  0.270000
 R2 and R3 integrals will be kept in memory, NReq=   130206950.
 DD1Dir will call FoFMem   1 times, MxPair=       456
 NAB=   156 NAA=    78 NBB=    66.
 Discarding MO integrals.

 **********************************************************************

            Population analysis using the SCF density.

 **********************************************************************

 Alpha  occ. eigenvalues --  -19.80333 -19.75149 -10.72501  -1.21523  -1.17611
 Alpha  occ. eigenvalues --   -0.74067  -0.59930  -0.56842  -0.54757  -0.50824
 Alpha  occ. eigenvalues --   -0.46775  -0.44002  -0.34448
 Alpha virt. eigenvalues --    0.01547   0.07941   0.10723   0.18562   0.22561
 Alpha virt. eigenvalues --    0.34225   0.35484   0.38148   0.44568   0.49939
 Alpha virt. eigenvalues --    0.50567   0.56335   0.56566   0.60854   0.64863
 Alpha virt. eigenvalues --    0.67895   0.72834   0.73291   0.76656   0.77828
 Alpha virt. eigenvalues --    0.79186   0.83197   0.95257   0.96245   1.05731
 Alpha virt. eigenvalues --    1.08816   1.08878   1.18882   1.21969   1.25155
 Alpha virt. eigenvalues --    1.33674   1.37805   1.44182   1.57628   1.61648
 Alpha virt. eigenvalues --    1.79857   1.81200   1.86933   1.92073   1.99436
 Alpha virt. eigenvalues --    2.00918   2.07810   2.14629   2.15447   2.19497
 Alpha virt. eigenvalues --    2.32263   2.46332   2.61743   2.64642   2.72184
 Alpha virt. eigenvalues --    2.75097   2.83547   2.95673   3.03388   3.07807
 Alpha virt. eigenvalues --    3.09047   3.21940   3.25892   3.27878   3.30704
 Alpha virt. eigenvalues --    3.30947   3.41903   3.44264   3.46613   3.49573
 Alpha virt. eigenvalues --    3.51317   3.61057   3.71049   3.78184   3.79570
 Alpha virt. eigenvalues --    3.82475   3.86399   3.95277   3.99835   4.05076
 Alpha virt. eigenvalues --    4.10024   4.20408   4.22336   4.23870   4.26894
 Alpha virt. eigenvalues --    4.48459   4.56517   4.59632   4.68865   4.80429
 Alpha virt. eigenvalues --    4.82066   4.82755   4.91756   5.10263   5.21462
 Alpha virt. eigenvalues --    5.27436   5.34724   5.36392   5.39492   5.42015
 Alpha virt. eigenvalues --    5.50640   5.54607   5.84807   5.86057   6.01456
 Alpha virt. eigenvalues --    6.32894   6.33323   6.39840   6.48782   6.50969
 Alpha virt. eigenvalues --    6.54212   6.55752   6.58101   6.77124   6.77954
 Alpha virt. eigenvalues --    6.86199   6.97924   7.09700   7.20027   7.20307
 Alpha virt. eigenvalues --    7.33645  10.55375  10.77677  13.14733
  Beta  occ. eigenvalues --  -19.77357 -19.75112 -10.72336  -1.21413  -1.07629
  Beta  occ. eigenvalues --   -0.73275  -0.58195  -0.54581  -0.53566  -0.46752
  Beta  occ. eigenvalues --   -0.40898  -0.34712
  Beta virt. eigenvalues --   -0.07124   0.01684   0.08628   0.11127   0.18747
  Beta virt. eigenvalues --    0.23441   0.34375   0.36096   0.39503   0.45664
  Beta virt. eigenvalues --    0.50218   0.51446   0.56681   0.56718   0.61075
  Beta virt. eigenvalues --    0.65728   0.68623   0.72841   0.76582   0.77757
  Beta virt. eigenvalues --    0.78726   0.81443   0.83252   0.95726   0.97318
  Beta virt. eigenvalues --    1.05992   1.09120   1.09133   1.19400   1.23394
  Beta virt. eigenvalues --    1.25546   1.35532   1.39040   1.46032   1.62005
  Beta virt. eigenvalues --    1.62361   1.80307   1.83036   1.87532   1.95689
  Beta virt. eigenvalues --    1.99558   2.01413   2.09427   2.14749   2.15582
  Beta virt. eigenvalues --    2.20723   2.32605   2.46644   2.62649   2.64768
  Beta virt. eigenvalues --    2.72700   2.75490   2.83852   2.96071   3.03609
  Beta virt. eigenvalues --    3.08802   3.09234   3.22233   3.26137   3.27983
  Beta virt. eigenvalues --    3.31222   3.31409   3.42205   3.44217   3.47938
  Beta virt. eigenvalues --    3.50285   3.51712   3.62678   3.72421   3.78637
  Beta virt. eigenvalues --    3.82188   3.82549   3.86777   3.95749   3.99830
  Beta virt. eigenvalues --    4.04949   4.10285   4.21099   4.22879   4.23885
  Beta virt. eigenvalues --    4.30930   4.49925   4.57345   4.60766   4.68874
  Beta virt. eigenvalues --    4.80603   4.82241   4.82837   4.94143   5.11260
  Beta virt. eigenvalues --    5.21881   5.33507   5.36121   5.38489   5.39553
  Beta virt. eigenvalues --    5.44053   5.54762   5.58473   5.84895   5.87255
  Beta virt. eigenvalues --    6.01616   6.32898   6.33693   6.48198   6.52466
  Beta virt. eigenvalues --    6.54872   6.56705   6.58387   6.60061   6.77775
  Beta virt. eigenvalues --    6.83089   6.90409   6.97910   7.09872   7.20088
  Beta virt. eigenvalues --    7.21424   7.37546  10.56668  10.79221  13.14842
          Condensed to atoms (all electrons):
               1          2          3          4          5          6
     1  C    4.476391   0.677795   0.371658   0.343051  -0.014807   0.008850
     2  O    0.677795   7.749416  -0.068249  -0.077985  -0.001367   0.004517
     3  H    0.371658  -0.068249   0.727417  -0.101622   0.000543   0.000954
     4  H    0.343051  -0.077985  -0.101622   0.749432   0.034206  -0.028100
     5  O   -0.014807  -0.001367   0.000543   0.034206   7.940017   0.305563
     6  H    0.008850   0.004517   0.000954  -0.028100   0.305563   0.447309
          Atomic-Atomic Spin Densities.
               1          2          3          4          5          6
     1  C    0.046287  -0.007084  -0.014385   0.033796  -0.005847  -0.001182
     2  O   -0.007084   0.015428  -0.002965   0.002199   0.002460  -0.000412
     3  H   -0.014385  -0.002965   0.037561  -0.001481   0.001844  -0.000117
     4  H    0.033796   0.002199  -0.001481  -0.044296  -0.027036   0.004507
     5  O   -0.005847   0.002460   0.001844  -0.027036   0.996396   0.001879
     6  H   -0.001182  -0.000412  -0.000117   0.004507   0.001879  -0.023725
 Mulliken charges and spin densities:
               1          2
     1  C    0.137062   0.051584
     2  O   -0.284129   0.009627
     3  H    0.069298   0.020456
     4  H    0.081018  -0.032312
     5  O   -0.264156   0.969695
     6  H    0.260907  -0.019051
 Sum of Mulliken charges =  -0.00000   1.00000
 Mulliken charges and spin densities with hydrogens summed into heavy atoms:
               1          2
     1  C    0.287378   0.039729
     2  O   -0.284129   0.009627
     5  O   -0.003250   0.950644
 APT charges:
               1
     1  C    0.770170
     2  O   -0.552865
     3  H   -0.067357
     4  H   -0.235128
     5  O   -0.216621
     6  H    0.301801
 Sum of APT charges =  -0.00000
 APT charges with hydrogens summed into heavy atoms:
               1
     1  C    0.467685
     2  O   -0.552865
     5  O    0.085179
 Electronic spatial extent (au):  <R**2>=            353.2279
 Charge=             -0.0000 electrons
 Dipole moment (field-independent basis, Debye):
    X=             -0.1277    Y=             -0.0002    Z=             -0.8408  Tot=              0.8504
 Quadrupole moment (field-independent basis, Debye-Ang):
   XX=            -15.6012   YY=            -18.2085   ZZ=            -21.2707
   XY=             -0.0006   XZ=             -4.9204   YZ=              0.0026
 Traceless Quadrupole moment (field-independent basis, Debye-Ang):
   XX=              2.7589   YY=              0.1516   ZZ=             -2.9105
   XY=             -0.0006   XZ=             -4.9204   YZ=              0.0026
 Octapole moment (field-independent basis, Debye-Ang**2):
  XXX=             39.2526  YYY=             -0.0310  ZZZ=             -9.1703  XYY=             18.2836
  XXY=             -0.0038  XXZ=             10.4880  XZZ=             18.1432  YZZ=             -0.0101
  YYZ=             -1.4180  XYZ=             -0.0067
 Hexadecapole moment (field-independent basis, Debye-Ang**3):
 XXXX=           -248.6621 YYYY=            -15.2591 ZZZZ=            -85.7953 XXXY=              0.0484
 XXXZ=            -65.5061 YYYX=              0.0855 YYYZ=              0.0192 ZZZX=            -31.9314
 ZZZY=              0.0180 XXYY=            -57.1317 XXZZ=            -67.1449 YYZZ=            -16.1903
 XXYZ=              0.0224 YYXZ=            -11.2324 ZZXY=              0.0274
 N-N= 6.099500457615D+01 E-N=-5.700344920407D+02  KE= 1.892552536496D+02
  Exact polarizability:  39.005  -0.011  13.993   4.019  -0.003  27.053
 Approx polarizability:  26.245  -0.004  15.567   1.137  -0.001  31.827
                          Isotropic Fermi Contact Couplings
        Atom                 a.u.       MegaHertz       Gauss      10(-4) cm-1
     1  C(13)              0.03444      38.71747      13.81535      12.91476
     2  O(17)              0.00265      -1.60350      -0.57217      -0.53487
     3  H(1)               0.01063      47.52751      16.95900      15.85347
     4  H(1)              -0.00055      -2.47455      -0.88298      -0.82542
     5  O(17)              0.02514     -15.24038      -5.43815      -5.08364
     6  H(1)              -0.01434     -64.09311     -22.87002     -21.37916
 --------------------------------------------------------
       Center         ----  Spin Dipole Couplings  ----
                      3XX-RR        3YY-RR        3ZZ-RR
 --------------------------------------------------------
     1   Atom        0.080949     -0.054118     -0.026831
     2   Atom        0.127323     -0.070788     -0.056535
     3   Atom        0.006215     -0.006433      0.000218
     4   Atom        0.079827     -0.044978     -0.034848
     5   Atom        3.543995     -1.848782     -1.695213
     6   Atom       -0.025744     -0.125988      0.151732
 --------------------------------------------------------
                        XY            XZ            YZ
 --------------------------------------------------------
     1   Atom       -0.000004      0.066224     -0.000002
     2   Atom        0.000172      0.052128      0.000017
     3   Atom       -0.000005     -0.004804      0.000000
     4   Atom       -0.000084      0.023591     -0.000007
     5   Atom       -0.003787      0.806898     -0.000571
     6   Atom       -0.000062     -0.027810     -0.000036
 --------------------------------------------------------


 ---------------------------------------------------------------------------------
              Anisotropic Spin Dipole Couplings in Principal Axis System
 ---------------------------------------------------------------------------------

       Atom             a.u.   MegaHertz   Gauss  10(-4) cm-1        Axes

              Baa    -0.0583    -7.826    -2.793    -2.611 -0.4294  0.0000  0.9031
     1 C(13)  Bbb    -0.0541    -7.262    -2.591    -2.422  0.0000  1.0000  0.0000
              Bcc     0.1124    15.088     5.384     5.033  0.9031 -0.0000  0.4294
 
              Baa    -0.0708     5.122     1.828     1.709 -0.0147  0.9985  0.0525
     2 O(17)  Bbb    -0.0703     5.086     1.815     1.696 -0.2546 -0.0545  0.9655
              Bcc     0.1411   -10.208    -3.642    -3.405  0.9669  0.0008  0.2551
 
              Baa    -0.0064    -3.432    -1.225    -1.145  0.0005  1.0000  0.0003
     3 H(1)   Bbb    -0.0024    -1.305    -0.466    -0.435  0.4851 -0.0005  0.8745
              Bcc     0.0089     4.738     1.690     1.580  0.8745 -0.0003 -0.4851
 
              Baa    -0.0450   -23.998    -8.563    -8.005  0.0010  1.0000 -0.0016
     4 H(1)   Bbb    -0.0395   -21.082    -7.522    -7.032 -0.1939  0.0018  0.9810
              Bcc     0.0845    45.080    16.086    15.037  0.9810 -0.0006  0.1939
 
              Baa    -1.8488   133.777    47.735    44.623  0.0007  1.0000  0.0001
     5 O(17)  Bbb    -1.8167   131.453    46.906    43.848 -0.1488 -0.0000  0.9889
              Bcc     3.6655  -265.230   -94.641   -88.471  0.9889 -0.0007  0.1488
 
              Baa    -0.1260   -67.221   -23.986   -22.423  0.0007  1.0000  0.0002
     6 H(1)   Bbb    -0.0300   -16.006    -5.711    -5.339  0.9885 -0.0007  0.1513
              Bcc     0.1560    83.227    29.698    27.762 -0.1513 -0.0001  0.9885
 

 ---------------------------------------------------------------------------------

 Calling FoFJK, ICntrl=  10100127 FMM=F ISym2X=0 I1Cent= 0 IOpClX= 1 NMat=1 NMatS=1 NMatT=0.
 -------------------------------------------------------------------
 Center     Atomic                   Forces (Hartrees/Bohr)
 Number     Number              X              Y              Z
 -------------------------------------------------------------------
      1        6          -0.002538779    0.000000439   -0.002499209
      2        8           0.000196368   -0.000000214    0.000410605
      3        1          -0.001801214   -0.000000193    0.000694152
      4        1           0.004665199   -0.000000425    0.001680718
      5        8          -0.002316614    0.000000134    0.005273168
      6        1           0.001795039    0.000000260   -0.005559435
 -------------------------------------------------------------------
 Cartesian Forces:  Max     0.005559435 RMS     0.002455337
 -----------------------------------------------------------------------------------------------
                       Internal Coordinate Forces (Hartree/Bohr or radian)
  Cent   Atom   N1       Length/X         N2         Alpha/Y        N3         Beta/Z          J
 -----------------------------------------------------------------------------------------------
      1  C 
      2  O        1   0.000411(     1)
      3  H        1  -0.001893(     2)      2   0.000792(     7)
      4  H        1  -0.004259(     3)      2   0.001235(     8)      3  -0.000000(    12)     0
         X        4  -0.000000(     4)      1   0.000860(     9)      2   0.000000(    13)     0
      5  O        4   0.000537(     5)      5   0.000860(    10)      1   0.000001(    14)     0
      6  H        6  -0.005766(     6)      4  -0.001739(    11)      5   0.000001(    15)     0
 -----------------------------------------------------------------------------------------------
 Internal  Forces:  Max     0.005765790 RMS     0.002034322

 GradGradGradGradGradGradGradGradGradGradGradGradGradGradGradGradGradGrad
 Berny optimization.
 Search for a saddle point.
 Step number   1 out of a maximum of   50
 All quantities printed in internal units (Hartrees-Bohrs-Radians)
 Swapping is turned off.
 Second derivative matrix not updated -- analytic derivatives used.
 The second derivative matrix:
                          R1        R2        A1        R3        A2
           R1           0.85400
           R2           0.03524   0.30317
           A1           0.05744  -0.00599   0.27597
           R3           0.04145   0.00502  -0.02046   0.27170
           A2           0.06209  -0.01929   0.08985  -0.00922   0.27371
           D1           0.00000   0.00000  -0.00000  -0.00000  -0.00000
           R101        -0.00257  -0.00021   0.00173   0.00186   0.00208
           AABS1       -0.00617  -0.00009   0.00418   0.00125   0.00771
           BABS1        0.00000  -0.00000   0.00000   0.00000   0.00000
           AABS2       -0.00317  -0.00188   0.00230  -0.00093  -0.00843
           RTS         -0.00839   0.00088   0.00262   0.01817   0.00276
           BABS2       -0.00000  -0.00000   0.00000   0.00000   0.00000
                          D1       R101      AABS1     BABS1     AABS2
           D1           0.05904
           R101         0.00000   0.48074
           AABS1        0.00000  -0.00110   0.00025
           BABS1        0.00114   0.00000  -0.00001   0.00106
           AABS2       -0.00000   0.00251   0.00628  -0.00000   0.02195
           RTS          0.00000  -0.00072  -0.00545   0.00001  -0.00234
           BABS2        0.00076  -0.00000  -0.00000   0.00220   0.00000
                          RTS      BABS2
           RTS          0.00281
           BABS2        0.00000   0.00399
 ITU=  0
     Eigenvalues ---   -0.00564  -0.00012   0.00448   0.00515   0.02393
     Eigenvalues ---    0.05908   0.18384   0.26237   0.29477   0.36727
     Eigenvalues ---    0.48082   0.87246
 Eigenvectors required to have negative eigenvalues:
                         AABS1      RTS      AABS2      R3        A2
   1                    0.78370   0.60266  -0.13683  -0.04793  -0.03342
                          R1        A1        R2       R101      BABS2
   1                    0.01681  -0.01251  -0.00580   0.00382   0.00022
 RFO step:  Lambda0=3.211491132D-04 Lambda=-2.67473777D-04.
 Linear search not attempted -- option 19 set.
 Maximum step size (   0.300) exceeded in Quadratic search.
    -- Step size scaled by   0.379
 Variable       Old X    -DE/DX   Delta X   Delta X   Delta X     New X
                                 (Linear)    (Quad)   (Total)
    R1        2.27088   0.00041   0.00000  -0.00130  -0.00130   2.26958
    R2        2.09098  -0.00189   0.00000  -0.00190  -0.00190   2.08908
    A1        2.13624   0.00079   0.00000   0.00207   0.00207   2.13831
    R3        2.12084  -0.00426   0.00000  -0.00041  -0.00041   2.12043
    A2        2.12330   0.00123   0.00000   0.00306   0.00306   2.12636
    D1        3.14161  -0.00000   0.00000  -0.00311  -0.00311   3.13850
   R101       1.84815  -0.00577   0.00000  -0.00472  -0.00472   1.84343
  AABS1       2.06785   0.00086   0.00000  -0.06025  -0.06025   2.00760
  BABS1       3.14063   0.00000   0.00000   0.25097   0.25097   3.39160
  AABS2       1.66592  -0.00174   0.00000  -0.01869  -0.01869   1.64722
   RTS        3.42097   0.00054   0.00000  -0.07156  -0.07156   3.34941
  BABS2       3.14187   0.00000   0.00000  -0.13366  -0.13366   3.00821
         Item               Value     Threshold  Converged?
 Maximum Force            0.005766     0.000450     NO 
 RMS     Force            0.002261     0.000300     NO 
 Maximum Displacement     0.250965     0.001800     NO 
 RMS     Displacement     0.086603     0.001200     NO 
 Predicted change in Energy= 1.245572D-05
 GradGradGradGradGradGradGradGradGradGradGradGradGradGradGradGradGradGrad

 ---------------------------------------------------------------------------------------------------
                            Z-MATRIX (ANGSTROMS AND DEGREES)
   CD    Cent   Atom    N1       Length/X        N2       Alpha/Y        N3        Beta/Z          J
 ---------------------------------------------------------------------------------------------------
      1      1  C 
      2      2  O        1   1.201010(     1)
      3      3  H        1   1.105495(     2)      2  122.516(     7)
      4      4  H        1   1.122083(     3)      2  121.832(     8)      3  179.823(    12)      0
      5         X        4   2.000000(     4)      1   90.000(     9)      2  180.000(    13)      0
      6      5  O        4   1.772434(     5)      5  115.027(    10)      1  194.324(    14)      0
      7      6  H        6   0.975503(     6)      4   94.379(    11)      5  172.358(    15)      0
 ---------------------------------------------------------------------------------------------------
                         Z-Matrix orientation:                         
 ---------------------------------------------------------------------
 Center     Atomic      Atomic             Coordinates (Angstroms)
 Number     Number       Type             X           Y           Z
 ---------------------------------------------------------------------
      1          6           0        0.000000    0.000000    0.000000
      2          8           0        0.000000    0.000000    1.201010
      3          1           0        0.932199    0.000000   -0.594242
      4          1           0       -0.953318   -0.002950   -0.591815
      5         -1           0        0.101528    0.000314   -2.291018
      6          8           0       -2.669609   -0.405604   -0.775492
      7          1           0       -2.839464   -0.447257    0.184206
 ---------------------------------------------------------------------
                    Distance matrix (angstroms):
                    1          2          3          4          5
     1  C    0.000000
     2  O    1.201010   0.000000
     3  H    1.105495   2.022851   0.000000
     4  H    1.122083   2.030528   1.885522   0.000000
     5  X    2.293266   3.493503   1.889196   2.000000   0.000000
     6  O    2.809398   3.346325   3.629104   1.772434   3.184460
     7  H    2.880369   3.049013   3.877043   2.087381   3.869946
                    6          7
     6  O    0.000000
     7  H    0.975503   0.000000
 Symmetry turned off by external request.
 Stoichiometry    CH3O2(2)
 Framework group  C1[X(CH3O2)]
 Deg. of freedom    12
 Full point group                 C1      NOp   1
 Rotational constants (GHZ):     44.1854560      4.9141556      4.4252884
 Standard basis: CC-pVTZ (5D, 7F)
   132 basis functions,   207 primitive gaussians,   150 cartesian basis functions
    13 alpha electrons       12 beta electrons
       nuclear repulsion energy        61.2468359816 Hartrees.
 NAtoms=    6 NActive=    6 NUniq=    6 SFac= 1.00D+00 NAtFMM=   60 NAOKFM=F Big=F
 Integral buffers will be    131072 words long.
 Regular integral format.
 Two-electron integral symmetry is turned off.
 Nuclear repulsion after empirical dispersion term =       61.2452728527 Hartrees.
 One-electron integrals computed using PRISM.
 NBasis=   132 RedAO= T EigKep=  2.06D-03  NBF=   132
 NBsUse=   132 1.00D-06 EigRej= -1.00D+00 NBFU=   132
 Initial guess from the checkpoint file:  "tmp.chk"
 B after Tr=     0.049168   -0.013392   -0.004797
         Rot=    0.997357    0.003832    0.014838   -0.071028 Ang=   8.33 deg.
 Initial guess <Sx>= 0.0000 <Sy>= 0.0000 <Sz>= 0.5000 <S**2>= 0.7554 S= 0.5027
 ExpMin= 1.03D-01 ExpMax= 1.53D+04 ExpMxC= 5.22D+02 IAcc=2 IRadAn=         4 AccDes= 0.00D+00
 Harris functional with IExCor=  419 and IRadAn=       4 diagonalized for initial guess.
 HarFok:  IExCor=  419 AccDes= 0.00D+00 IRadAn=         4 IDoV= 1 UseB2=F ITyADJ=14
 ICtDFT=  3500011 ScaDFX=  1.000000  1.000000  1.000000  1.000000
 FoFCou: FMM=F IPFlag=           0 FMFlag=      100000 FMFlg1=           0
         NFxFlg=           0 DoJE=T BraDBF=F KetDBF=T FulRan=T
         wScrn=  0.000000 ICntrl=     500 IOpCl=  0 I1Cent=   200000004 NGrid=           0
         NMat0=    1 NMatS0=      1 NMatT0=    0 NMatD0=    1 NMtDS0=    0 NMtDT0=    0
 Symmetry not used in FoFCou.
 Keep R1 and R2 ints in memory in canonical form, NReq=79148344.
 Requested convergence on RMS density matrix=1.00D-08 within  64 cycles.
 Requested convergence on MAX density matrix=1.00D-06.
 Requested convergence on             energy=1.00D-06.
 No special actions if energy rises.
 Integral accuracy reduced to 1.0D-05 until final iterations.
 Initial convergence to 1.0D-05 achieved.  Increase integral accuracy.
 SCF Done:  E(UB2PLYPD3) =  -189.984253562     A.U. after   21 cycles
            NFock= 21  Conv=0.63D-08     -V/T= 2.0038
 <Sx>= 0.0000 <Sy>= 0.0000 <Sz>= 0.5000 <S**2>= 0.7559 S= 0.5029
 <L.S>= 0.000000000000E+00
 Annihilation of the first spin contaminant:
 S**2 before annihilation     0.7559,   after     0.7500
 QCSCF skips out because SCF is already converged.
 DoSCS=T DFT=T ScalE2(SS,OS)=  0.270000  0.270000
 ExpMin= 1.03D-01 ExpMax= 1.53D+04 ExpMxC= 5.22D+02 IAcc=3 IRadAn=         5 AccDes= 0.00D+00
 HarFok:  IExCor=  205 AccDes= 0.00D+00 IRadAn=         5 IDoV=-2 UseB2=F ITyADJ=14
 ICtDFT= 12500011 ScaDFX=  1.000000  1.000000  1.000000  1.000000
 Range of M.O.s used for correlation:     4   132
 NBasis=   132 NAE=    13 NBE=    12 NFC=     3 NFV=     0
 NROrb=    129 NOA=    10 NOB=     9 NVA=   119 NVB=   120
 DoSCS=T DFT=T ScalE2(SS,OS)=  0.270000  0.270000
 Fully direct method using O(ONN) memory.
 JobTyp=2 Pass  1:  I=   4 to  13 NPSUse=  6 ParTrn=T ParDer=T DoDerP=T.
 JobTyp=3 Pass  1:  I=   4 to  12 NPSUse=  6 ParTrn=T ParDer=T DoDerP=T.
 Spin components of T(2) and E(2):
     alpha-alpha T2 =       0.3180962216D-01 E2=     -0.2636431227D-01
     alpha-beta  T2 =       0.1851546394D+00 E2=     -0.1492189836D+00
     beta-beta   T2 =       0.2934318603D-01 E2=     -0.2176496766D-01
 E2(B2PLYPD3) =    -0.1973482636D+00 E(B2PLYPD3) =    -0.19018160182535D+03
          IDoAtm=111111
          Differentiating once with respect to electric field.
                with respect to dipole field.
          Differentiating once with respect to nuclear coordinates.
 Keep R1 and R2 ints in memory in canonical form, NReq=79099483.
          There are     1 degrees of freedom in the 1st order CPHF.  IDoFFX=0 NUNeed=     1.
 LinEq1:  Iter=  0 NonCon=     1 RMS=1.84D-03 Max=8.02D-02 NDo=     1
 AX will form     1 AO Fock derivatives at one time.
 LinEq1:  Iter=  1 NonCon=     1 RMS=6.63D-04 Max=1.85D-02 NDo=     1
 LinEq1:  Iter=  2 NonCon=     1 RMS=3.32D-04 Max=6.09D-03 NDo=     1
 LinEq1:  Iter=  3 NonCon=     1 RMS=1.49D-04 Max=1.42D-03 NDo=     1
 LinEq1:  Iter=  4 NonCon=     1 RMS=7.10D-05 Max=1.46D-03 NDo=     1
 LinEq1:  Iter=  5 NonCon=     1 RMS=3.05D-05 Max=5.66D-04 NDo=     1
 LinEq1:  Iter=  6 NonCon=     1 RMS=1.89D-05 Max=4.38D-04 NDo=     1
 LinEq1:  Iter=  7 NonCon=     1 RMS=9.21D-06 Max=2.70D-04 NDo=     1
 LinEq1:  Iter=  8 NonCon=     1 RMS=3.18D-06 Max=7.60D-05 NDo=     1
 LinEq1:  Iter=  9 NonCon=     1 RMS=1.02D-06 Max=1.56D-05 NDo=     1
 LinEq1:  Iter= 10 NonCon=     1 RMS=3.45D-07 Max=7.01D-06 NDo=     1
 LinEq1:  Iter= 11 NonCon=     1 RMS=1.22D-07 Max=2.21D-06 NDo=     1
 LinEq1:  Iter= 12 NonCon=     1 RMS=3.61D-08 Max=4.26D-07 NDo=     1
 LinEq1:  Iter= 13 NonCon=     1 RMS=8.47D-09 Max=9.85D-08 NDo=     1
 LinEq1:  Iter= 14 NonCon=     1 RMS=1.92D-09 Max=4.32D-08 NDo=     1
 LinEq1:  Iter= 15 NonCon=     1 RMS=5.22D-10 Max=1.38D-08 NDo=     1
 LinEq1:  Iter= 16 NonCon=     1 RMS=1.95D-10 Max=3.50D-09 NDo=     1
 LinEq1:  Iter= 17 NonCon=     0 RMS=5.72D-11 Max=9.73D-10 NDo=     1
 Linear equations converged to 1.000D-10 1.000D-09 after    17 iterations.
 End of Minotr F.D. properties file   721 does not exist.
 End of Minotr F.D. properties file   722 does not exist.
 End of Minotr F.D. properties file   788 does not exist.
 Calling FoFJK, ICntrl=  10002127 FMM=F ISym2X=0 I1Cent= 0 IOpClX= 1 NMat=1 NMatS=1 NMatT=0.
 -------------------------------------------------------------------
 Center     Atomic                   Forces (Hartrees/Bohr)
 Number     Number              X              Y              Z
 -------------------------------------------------------------------
      1        6          -0.001337965    0.000147769   -0.001663273
      2        8           0.000082547   -0.000074066    0.000345939
      3        1          -0.001137919    0.000002536    0.000442546
      4        1           0.002893691   -0.000007113    0.001144702
      5        8          -0.001716526   -0.000361187    0.003113707
      6        1           0.001216171    0.000292063   -0.003383621
 -------------------------------------------------------------------
 Cartesian Forces:  Max     0.003383621 RMS     0.001521519
 -----------------------------------------------------------------------------------------------
                       Internal Coordinate Forces (Hartree/Bohr or radian)
  Cent   Atom   N1       Length/X         N2         Alpha/Y        N3         Beta/Z          J
 -----------------------------------------------------------------------------------------------
      1  C 
      2  O        1   0.000346(     1)
      3  H        1  -0.001197(     2)      2   0.000498(     7)
      4  H        1  -0.002495(     3)      2   0.000682(     8)      3   0.000004(    12)     0
         X        4   0.000000(     4)      1   0.000418(     9)      2   0.000150(    13)     0
      5  O        4   0.000528(     5)      5   0.000442(    10)      1  -0.000089(    14)     0
      6  H        6  -0.003553(     6)      4  -0.001150(    11)      5   0.000000(    15)     0
 -----------------------------------------------------------------------------------------------
 Internal  Forces:  Max     0.003553031 RMS     0.001241413

 GradGradGradGradGradGradGradGradGradGradGradGradGradGradGradGradGradGrad
 Berny optimization.
 Search for a saddle point.
 Step number   2 out of a maximum of   50
 All quantities printed in internal units (Hartrees-Bohrs-Radians)
 Swapping is turned off.
 Update second derivatives using D2CorN and points    1    2
 The second derivative matrix:
                          R1        R2        A1        R3        A2
           R1           0.85400
           R2           0.03524   0.30317
           A1           0.05744  -0.00599   0.27597
           R3           0.04145   0.00502  -0.02046   0.27170
           A2           0.06208  -0.01929   0.08985  -0.00922   0.27371
           D1           0.00000  -0.00000  -0.00000   0.00000  -0.00000
           R101        -0.00257  -0.00021   0.00173   0.00187   0.00208
           AABS1       -0.00614  -0.00009   0.00418   0.00130   0.00768
           BABS1       -0.00012   0.00003  -0.00001  -0.00021   0.00012
           AABS2       -0.00316  -0.00189   0.00230  -0.00091  -0.00844
           RTS         -0.00836   0.00087   0.00262   0.01823   0.00272
           BABS2        0.00006  -0.00002   0.00001   0.00011  -0.00006
                          D1       R101      AABS1     BABS1     AABS2
           D1           0.05904
           R101         0.00000   0.48074
           AABS1        0.00000  -0.00109   0.00017
           BABS1        0.00113  -0.00004   0.00012   0.00140
           AABS2       -0.00000   0.00251   0.00625   0.00006   0.02194
           RTS          0.00001  -0.00070  -0.00543  -0.00030  -0.00234
           BABS2        0.00077   0.00002  -0.00008   0.00209  -0.00004
                          RTS      BABS2
           RTS          0.00296
           BABS2        0.00014   0.00402
 ITU=  0  0
     Eigenvalues ---   -0.00562   0.00021   0.00455   0.00515   0.02390
     Eigenvalues ---    0.05908   0.18384   0.26237   0.29477   0.36727
     Eigenvalues ---    0.48083   0.87246
 Eigenvectors required to have negative eigenvalues:
                         AABS1      RTS      AABS2      R3        A2
   1                    0.78876   0.59563  -0.13775  -0.04774  -0.03335
                          R1       BABS1      A1        R2       BABS2
   1                    0.01671   0.01449  -0.01251  -0.00574  -0.00550
 RFO step:  Lambda0=1.435608267D-04 Lambda=-1.24766027D-04.
 Linear search not attempted -- option 19 set.
 Maximum step size (   0.300) exceeded in Quadratic search.
    -- Step size scaled by   0.964
 Variable       Old X    -DE/DX   Delta X   Delta X   Delta X     New X
                                 (Linear)    (Quad)   (Total)
    R1        2.26958   0.00035   0.00000  -0.00201  -0.00201   2.26757
    R2        2.08908  -0.00120   0.00000  -0.00304  -0.00304   2.08604
    A1        2.13831   0.00050   0.00000   0.00329   0.00329   2.14160
    R3        2.12043  -0.00249   0.00000  -0.00098  -0.00098   2.11945
    A2        2.12636   0.00068   0.00000   0.00519   0.00519   2.13156
    D1        3.13850   0.00000   0.00000   0.00294   0.00294   3.14144
   R101       1.84343  -0.00355   0.00000  -0.00747  -0.00747   1.83596
  AABS1       2.00760   0.00044   0.00000  -0.11573  -0.11573   1.89187
  BABS1       3.39160  -0.00009   0.00000  -0.22844  -0.22844   3.16316
  AABS2       1.64722  -0.00115   0.00000  -0.02519  -0.02519   1.62203
   RTS        3.34941   0.00053   0.00000  -0.10109  -0.10109   3.24833
  BABS2       3.00821   0.00000   0.00000   0.11599   0.11599   3.12421
         Item               Value     Threshold  Converged?
 Maximum Force            0.003553     0.000450     NO 
 RMS     Force            0.001382     0.000300     NO 
 Maximum Displacement     0.228435     0.001800     NO 
 RMS     Displacement     0.086603     0.001200     NO 
 Predicted change in Energy= 6.875408D-06
 GradGradGradGradGradGradGradGradGradGradGradGradGradGradGradGradGradGrad

 ---------------------------------------------------------------------------------------------------
                            Z-MATRIX (ANGSTROMS AND DEGREES)
   CD    Cent   Atom    N1       Length/X        N2       Alpha/Y        N3        Beta/Z          J
 ---------------------------------------------------------------------------------------------------
      1      1  C 
      2      2  O        1   1.199944(     1)
      3      3  H        1   1.103886(     2)      2  122.705(     7)
      4      4  H        1   1.121563(     3)      2  122.129(     8)      3  179.991(    12)      0
      5         X        4   2.000000(     4)      1   90.000(     9)      2  180.000(    13)      0
      6      5  O        4   1.718940(     5)      5  108.396(    10)      1  181.236(    14)      0
      7      6  H        6   0.971549(     6)      4   92.935(    11)      5  179.004(    15)      0
 ---------------------------------------------------------------------------------------------------
                         Z-Matrix orientation:                         
 ---------------------------------------------------------------------
 Center     Atomic      Atomic             Coordinates (Angstroms)
 Number     Number       Type             X           Y           Z
 ---------------------------------------------------------------------
      1          6           0        0.000000    0.000000    0.000000
      2          8           0        0.000000    0.000000    1.199944
      3          1           0        0.928883    0.000000   -0.596440
      4          1           0       -0.949797   -0.000146   -0.596480
      5         -1           0        0.113862    0.000017   -2.290183
      6          8           0       -2.619271   -0.035579   -1.004348
      7          1           0       -2.897648   -0.046902   -0.073604
 ---------------------------------------------------------------------
                    Distance matrix (angstroms):
                    1          2          3          4          5
     1  C    0.000000
     2  O    1.199944   0.000000
     3  H    1.103886   2.022330   0.000000
     4  H    1.121563   2.032057   1.878680   0.000000
     5  X    2.293012   3.491984   1.879634   2.000000   0.000000
     6  O    2.805452   3.423558   3.571701   1.718940   3.020704
     7  H    2.898962   3.165516   3.862369   2.017352   3.739602
                    6          7
     6  O    0.000000
     7  H    0.971549   0.000000
 Symmetry turned off by external request.
 Stoichiometry    CH3O2(2)
 Framework group  C1[X(CH3O2)]
 Deg. of freedom    12
 Full point group                 C1      NOp   1
 Rotational constants (GHZ):     47.4929111      4.7496718      4.3178798
 Standard basis: CC-pVTZ (5D, 7F)
   132 basis functions,   207 primitive gaussians,   150 cartesian basis functions
    13 alpha electrons       12 beta electrons
       nuclear repulsion energy        61.1173952808 Hartrees.
 NAtoms=    6 NActive=    6 NUniq=    6 SFac= 1.00D+00 NAtFMM=   60 NAOKFM=F Big=F
 Integral buffers will be    131072 words long.
 Regular integral format.
 Two-electron integral symmetry is turned off.
 Nuclear repulsion after empirical dispersion term =       61.1158432423 Hartrees.
 One-electron integrals computed using PRISM.
 NBasis=   132 RedAO= T EigKep=  1.95D-03  NBF=   132
 NBsUse=   132 1.00D-06 EigRej= -1.00D+00 NBFU=   132
 Initial guess from the checkpoint file:  "tmp.chk"
 B after Tr=     0.054674    0.023074   -0.032950
         Rot=    0.997414   -0.008966    0.033290    0.063063 Ang=  -8.24 deg.
 Initial guess <Sx>= 0.0000 <Sy>= 0.0000 <Sz>= 0.5000 <S**2>= 0.7559 S= 0.5030
 ExpMin= 1.03D-01 ExpMax= 1.53D+04 ExpMxC= 5.22D+02 IAcc=2 IRadAn=         4 AccDes= 0.00D+00
 Harris functional with IExCor=  419 and IRadAn=       4 diagonalized for initial guess.
 HarFok:  IExCor=  419 AccDes= 0.00D+00 IRadAn=         4 IDoV= 1 UseB2=F ITyADJ=14
 ICtDFT=  3500011 ScaDFX=  1.000000  1.000000  1.000000  1.000000
 FoFCou: FMM=F IPFlag=           0 FMFlag=      100000 FMFlg1=           0
         NFxFlg=           0 DoJE=T BraDBF=F KetDBF=T FulRan=T
         wScrn=  0.000000 ICntrl=     500 IOpCl=  0 I1Cent=   200000004 NGrid=           0
         NMat0=    1 NMatS0=      1 NMatT0=    0 NMatD0=    1 NMtDS0=    0 NMtDT0=    0
 Symmetry not used in FoFCou.
 Keep R1 and R2 ints in memory in canonical form, NReq=79148288.
 Requested convergence on RMS density matrix=1.00D-08 within  64 cycles.
 Requested convergence on MAX density matrix=1.00D-06.
 Requested convergence on             energy=1.00D-06.
 No special actions if energy rises.
 Integral accuracy reduced to 1.0D-05 until final iterations.
 Initial convergence to 1.0D-05 achieved.  Increase integral accuracy.
 SCF Done:  E(UB2PLYPD3) =  -189.983500079     A.U. after   23 cycles
            NFock= 23  Conv=0.51D-08     -V/T= 2.0037
 <Sx>= 0.0000 <Sy>= 0.0000 <Sz>= 0.5000 <S**2>= 0.7566 S= 0.5033
 <L.S>= 0.000000000000E+00
 Annihilation of the first spin contaminant:
 S**2 before annihilation     0.7566,   after     0.7500
 QCSCF skips out because SCF is already converged.
 DoSCS=T DFT=T ScalE2(SS,OS)=  0.270000  0.270000
 ExpMin= 1.03D-01 ExpMax= 1.53D+04 ExpMxC= 5.22D+02 IAcc=3 IRadAn=         5 AccDes= 0.00D+00
 HarFok:  IExCor=  205 AccDes= 0.00D+00 IRadAn=         5 IDoV=-2 UseB2=F ITyADJ=14
 ICtDFT= 12500011 ScaDFX=  1.000000  1.000000  1.000000  1.000000
 Range of M.O.s used for correlation:     4   132
 NBasis=   132 NAE=    13 NBE=    12 NFC=     3 NFV=     0
 NROrb=    129 NOA=    10 NOB=     9 NVA=   119 NVB=   120
 DoSCS=T DFT=T ScalE2(SS,OS)=  0.270000  0.270000
 Fully direct method using O(ONN) memory.
 JobTyp=2 Pass  1:  I=   4 to  13 NPSUse=  6 ParTrn=T ParDer=T DoDerP=T.
 JobTyp=3 Pass  1:  I=   4 to  12 NPSUse=  6 ParTrn=T ParDer=T DoDerP=T.
 Spin components of T(2) and E(2):
     alpha-alpha T2 =       0.3177237491D-01 E2=     -0.2638213361D-01
     alpha-beta  T2 =       0.1860703707D+00 E2=     -0.1496318356D+00
     beta-beta   T2 =       0.3014525991D-01 E2=     -0.2206529405D-01
 E2(B2PLYPD3) =    -0.1980792633D+00 E(B2PLYPD3) =    -0.19018157934244D+03
          IDoAtm=111111
          Differentiating once with respect to electric field.
                with respect to dipole field.
          Differentiating once with respect to nuclear coordinates.
 Keep R1 and R2 ints in memory in canonical form, NReq=79099369.
          There are     1 degrees of freedom in the 1st order CPHF.  IDoFFX=0 NUNeed=     1.
 LinEq1:  Iter=  0 NonCon=     1 RMS=2.01D-03 Max=9.16D-02 NDo=     1
 AX will form     1 AO Fock derivatives at one time.
 LinEq1:  Iter=  1 NonCon=     1 RMS=7.10D-04 Max=2.01D-02 NDo=     1
 LinEq1:  Iter=  2 NonCon=     1 RMS=3.61D-04 Max=5.93D-03 NDo=     1
 LinEq1:  Iter=  3 NonCon=     1 RMS=1.57D-04 Max=1.70D-03 NDo=     1
 LinEq1:  Iter=  4 NonCon=     1 RMS=7.76D-05 Max=1.41D-03 NDo=     1
 LinEq1:  Iter=  5 NonCon=     1 RMS=3.62D-05 Max=6.65D-04 NDo=     1
 LinEq1:  Iter=  6 NonCon=     1 RMS=2.12D-05 Max=4.28D-04 NDo=     1
 LinEq1:  Iter=  7 NonCon=     1 RMS=7.61D-06 Max=1.35D-04 NDo=     1
 LinEq1:  Iter=  8 NonCon=     1 RMS=2.16D-06 Max=4.52D-05 NDo=     1
 LinEq1:  Iter=  9 NonCon=     1 RMS=7.01D-07 Max=1.53D-05 NDo=     1
 LinEq1:  Iter= 10 NonCon=     1 RMS=2.35D-07 Max=5.70D-06 NDo=     1
 LinEq1:  Iter= 11 NonCon=     1 RMS=8.83D-08 Max=3.15D-06 NDo=     1
 LinEq1:  Iter= 12 NonCon=     1 RMS=3.46D-08 Max=8.70D-07 NDo=     1
 LinEq1:  Iter= 13 NonCon=     1 RMS=8.83D-09 Max=8.46D-08 NDo=     1
 LinEq1:  Iter= 14 NonCon=     1 RMS=1.81D-09 Max=2.20D-08 NDo=     1
 LinEq1:  Iter= 15 NonCon=     1 RMS=3.08D-10 Max=3.88D-09 NDo=     1
 LinEq1:  Iter= 16 NonCon=     0 RMS=6.42D-11 Max=9.19D-10 NDo=     1
 Linear equations converged to 1.000D-10 1.000D-09 after    16 iterations.
 End of Minotr F.D. properties file   721 does not exist.
 End of Minotr F.D. properties file   722 does not exist.
 End of Minotr F.D. properties file   788 does not exist.
 Calling FoFJK, ICntrl=  10002127 FMM=F ISym2X=0 I1Cent= 0 IOpClX= 1 NMat=1 NMatS=1 NMatT=0.
 -------------------------------------------------------------------
 Center     Atomic                   Forces (Hartrees/Bohr)
 Number     Number              X              Y              Z
 -------------------------------------------------------------------
      1        6           0.000425514    0.000027513    0.000695758
      2        8          -0.000058014   -0.000015575   -0.000289408
      3        1          -0.000074281   -0.000004774   -0.000038779
      4        1          -0.000408505   -0.000008875   -0.000610081
      5        8           0.000294561   -0.000003477    0.000345951
      6        1          -0.000179275    0.000005189   -0.000103441
 -------------------------------------------------------------------
 Cartesian Forces:  Max     0.000695758 RMS     0.000293332
 -----------------------------------------------------------------------------------------------
                       Internal Coordinate Forces (Hartree/Bohr or radian)
  Cent   Atom   N1       Length/X         N2         Alpha/Y        N3         Beta/Z          J
 -----------------------------------------------------------------------------------------------
      1  C 
      2  O        1  -0.000289(     1)
      3  H        1  -0.000042(     2)      2   0.000152(     7)
      4  H        1   0.000444(     3)      2   0.000023(     8)      3  -0.000009(    12)     0
         X        4  -0.000000(     4)      1   0.000306(     9)      2   0.000021(    13)     0
      5  O        4  -0.000170(     5)      5   0.000307(    10)      1   0.000008(    14)     0
      6  H        6  -0.000048(     6)      4   0.000370(    11)      5   0.000016(    15)     0
 -----------------------------------------------------------------------------------------------
 Internal  Forces:  Max     0.000443799 RMS     0.000210157

 GradGradGradGradGradGradGradGradGradGradGradGradGradGradGradGradGradGrad
 Berny optimization.
 Search for a saddle point.
 Step number   3 out of a maximum of   50
 All quantities printed in internal units (Hartrees-Bohrs-Radians)
 Swapping is turned off.
 Update second derivatives using D2CorN and points    1    2    3
 The second derivative matrix:
                          R1        R2        A1        R3        A2
           R1           0.85398
           R2           0.03523   0.30317
           A1           0.05746  -0.00598   0.27596
           R3           0.04147   0.00505  -0.02049   0.27172
           A2           0.06211  -0.01929   0.08984  -0.00927   0.27372
           D1           0.00001  -0.00000  -0.00000  -0.00000  -0.00000
           R101        -0.00260  -0.00021   0.00174   0.00194   0.00207
           AABS1       -0.00664  -0.00009   0.00442   0.00239   0.00761
           BABS1       -0.00038   0.00004   0.00009   0.00017   0.00014
           AABS2       -0.00327  -0.00187   0.00234  -0.00064  -0.00848
           RTS         -0.00884   0.00085   0.00288   0.01927   0.00269
           BABS2        0.00018  -0.00002  -0.00004  -0.00005  -0.00007
                          D1       R101      AABS1     BABS1     AABS2
           D1           0.05904
           R101        -0.00000   0.48076
           AABS1       -0.00002  -0.00090   0.00097
           BABS1        0.00112   0.00001   0.00038   0.00148
           AABS2       -0.00001   0.00260   0.00707   0.00041   0.02229
           RTS         -0.00000  -0.00057  -0.00537  -0.00048  -0.00172
           BABS2        0.00077  -0.00000  -0.00020   0.00208  -0.00020
                          RTS      BABS2
           RTS          0.00239
           BABS2        0.00024   0.00401
 ITU=  0  0  0
     Eigenvalues ---   -0.00577   0.00023   0.00446   0.00515   0.02458
     Eigenvalues ---    0.05908   0.18386   0.26254   0.29476   0.36728
     Eigenvalues ---    0.48085   0.87246
 Eigenvectors required to have negative eigenvalues:
                         AABS1      RTS      AABS2      R3        A2
   1                    0.75521   0.63143  -0.16081  -0.05550  -0.03324
                          R1       BABS1      A1       BABS2      R2
   1                    0.01801   0.01679  -0.01423  -0.00795  -0.00598
 RFO step:  Lambda0=1.841395361D-07 Lambda=-2.63781410D-05.
 Linear search not attempted -- option 19 set.
 Variable       Old X    -DE/DX   Delta X   Delta X   Delta X     New X
                                 (Linear)    (Quad)   (Total)
    R1        2.26757  -0.00029   0.00000  -0.00097  -0.00097   2.26660
    R2        2.08604  -0.00004   0.00000   0.00008   0.00008   2.08612
    A1        2.14160   0.00015   0.00000   0.00123   0.00123   2.14283
    R3        2.11945   0.00044   0.00000   0.00549   0.00549   2.12494
    A2        2.13156   0.00002   0.00000  -0.00044  -0.00044   2.13112
    D1        3.14144  -0.00001   0.00000   0.00136   0.00136   3.14279
   R101       1.83596  -0.00005   0.00000  -0.00012  -0.00012   1.83584
  AABS1       1.89187   0.00031   0.00000   0.04315   0.04315   1.93502
  BABS1       3.16316   0.00001   0.00000  -0.13081  -0.13081   3.03236
  AABS2       1.62203   0.00037   0.00000   0.00144   0.00144   1.62347
   RTS        3.24833  -0.00017   0.00000  -0.05523  -0.05523   3.19309
  BABS2       3.12421   0.00002   0.00000   0.07653   0.07653   3.20074
         Item               Value     Threshold  Converged?
 Maximum Force            0.000444     0.000450     YES
 RMS     Force            0.000218     0.000300     YES
 Maximum Displacement     0.130805     0.001800     NO 
 RMS     Displacement     0.048233     0.001200     NO 
 Predicted change in Energy=-1.346445D-05
 GradGradGradGradGradGradGradGradGradGradGradGradGradGradGradGradGradGrad

 ---------------------------------------------------------------------------------------------------
                            Z-MATRIX (ANGSTROMS AND DEGREES)
   CD    Cent   Atom    N1       Length/X        N2       Alpha/Y        N3        Beta/Z          J
 ---------------------------------------------------------------------------------------------------
      1      1  C 
      2      2  O        1   1.199433(     1)
      3      3  H        1   1.103927(     2)      2  122.775(     7)
      4      4  H        1   1.124469(     3)      2  122.104(     8)      3  180.069(    12)      0
      5         X        4   2.000000(     4)      1   90.000(     9)      2  180.000(    13)      0
      6      5  O        4   1.689711(     5)      5  110.869(    10)      1  173.741(    14)      0
      7      6  H        6   0.971487(     6)      4   93.018(    11)      5  183.389(    15)      0
 ---------------------------------------------------------------------------------------------------
                         Z-Matrix orientation:                         
 ---------------------------------------------------------------------
 Center     Atomic      Atomic             Coordinates (Angstroms)
 Number     Number       Type             X           Y           Z
 ---------------------------------------------------------------------
      1          6           0        0.000000    0.000000    0.000000
      2          8           0        0.000000    0.000000    1.199433
      3          1           0        0.928182    0.000000   -0.597606
      4          1           0       -0.952519    0.001144   -0.597609
      5         -1           0        0.110398   -0.000133   -2.291777
      6          8           0       -2.601667    0.175253   -0.921829
      7          1           0       -2.836698    0.200142    0.020470
 ---------------------------------------------------------------------
                    Distance matrix (angstroms):
                    1          2          3          4          5
     1  C    0.000000
     2  O    1.199433   0.000000
     3  H    1.103927   2.022590   0.000000
     4  H    1.124469   2.033876   1.880701   0.000000
     5  X    2.294434   3.492955   1.881219   2.000000   0.000000
     6  O    2.765711   3.361419   3.549038   1.689711   3.043488
     7  H    2.843823   3.078452   3.820523   1.992926   3.751263
                    6          7
     6  O    0.000000
     7  H    0.971487   0.000000
 Symmetry turned off by external request.
 Stoichiometry    CH3O2(2)
 Framework group  C1[X(CH3O2)]
 Deg. of freedom    12
 Full point group                 C1      NOp   1
 Rotational constants (GHZ):     46.6288666      4.9234136      4.4538116
 Standard basis: CC-pVTZ (5D, 7F)
   132 basis functions,   207 primitive gaussians,   150 cartesian basis functions
    13 alpha electrons       12 beta electrons
       nuclear repulsion energy        61.5437490769 Hartrees.
 NAtoms=    6 NActive=    6 NUniq=    6 SFac= 1.00D+00 NAtFMM=   60 NAOKFM=F Big=F
 Integral buffers will be    131072 words long.
 Regular integral format.
 Two-electron integral symmetry is turned off.
 Nuclear repulsion after empirical dispersion term =       61.5421775074 Hartrees.
 One-electron integrals computed using PRISM.
 NBasis=   132 RedAO= T EigKep=  1.97D-03  NBF=   132
 NBsUse=   132 1.00D-06 EigRej= -1.00D+00 NBFU=   132
 Initial guess from the checkpoint file:  "tmp.chk"
 B after Tr=     0.011017    0.010795    0.021764
         Rot=    0.999241   -0.003259   -0.009559    0.037621 Ang=  -4.46 deg.
 Initial guess <Sx>= 0.0000 <Sy>= 0.0000 <Sz>= 0.5000 <S**2>= 0.7565 S= 0.5033
 ExpMin= 1.03D-01 ExpMax= 1.53D+04 ExpMxC= 5.22D+02 IAcc=2 IRadAn=         4 AccDes= 0.00D+00
 Harris functional with IExCor=  419 and IRadAn=       4 diagonalized for initial guess.
 HarFok:  IExCor=  419 AccDes= 0.00D+00 IRadAn=         4 IDoV= 1 UseB2=F ITyADJ=14
 ICtDFT=  3500011 ScaDFX=  1.000000  1.000000  1.000000  1.000000
 FoFCou: FMM=F IPFlag=           0 FMFlag=      100000 FMFlg1=           0
         NFxFlg=           0 DoJE=T BraDBF=F KetDBF=T FulRan=T
         wScrn=  0.000000 ICntrl=     500 IOpCl=  0 I1Cent=   200000004 NGrid=           0
         NMat0=    1 NMatS0=      1 NMatT0=    0 NMatD0=    1 NMtDS0=    0 NMtDT0=    0
 Symmetry not used in FoFCou.
 Keep R1 and R2 ints in memory in canonical form, NReq=79148497.
 Requested convergence on RMS density matrix=1.00D-08 within  64 cycles.
 Requested convergence on MAX density matrix=1.00D-06.
 Requested convergence on             energy=1.00D-06.
 No special actions if energy rises.
 Integral accuracy reduced to 1.0D-05 until final iterations.
 Initial convergence to 1.0D-05 achieved.  Increase integral accuracy.
 SCF Done:  E(UB2PLYPD3) =  -189.983092702     A.U. after   22 cycles
            NFock= 22  Conv=0.84D-08     -V/T= 2.0037
 <Sx>= 0.0000 <Sy>= 0.0000 <Sz>= 0.5000 <S**2>= 0.7569 S= 0.5035
 <L.S>= 0.000000000000E+00
 Annihilation of the first spin contaminant:
 S**2 before annihilation     0.7569,   after     0.7500
 QCSCF skips out because SCF is already converged.
 DoSCS=T DFT=T ScalE2(SS,OS)=  0.270000  0.270000
 ExpMin= 1.03D-01 ExpMax= 1.53D+04 ExpMxC= 5.22D+02 IAcc=3 IRadAn=         5 AccDes= 0.00D+00
 HarFok:  IExCor=  205 AccDes= 0.00D+00 IRadAn=         5 IDoV=-2 UseB2=F ITyADJ=14
 ICtDFT= 12500011 ScaDFX=  1.000000  1.000000  1.000000  1.000000
 Range of M.O.s used for correlation:     4   132
 NBasis=   132 NAE=    13 NBE=    12 NFC=     3 NFV=     0
 NROrb=    129 NOA=    10 NOB=     9 NVA=   119 NVB=   120
 DoSCS=T DFT=T ScalE2(SS,OS)=  0.270000  0.270000
 Fully direct method using O(ONN) memory.
 JobTyp=2 Pass  1:  I=   4 to  13 NPSUse=  6 ParTrn=T ParDer=T DoDerP=T.
 JobTyp=3 Pass  1:  I=   4 to  12 NPSUse=  6 ParTrn=T ParDer=T DoDerP=T.
 Spin components of T(2) and E(2):
     alpha-alpha T2 =       0.3182954735D-01 E2=     -0.2642112565D-01
     alpha-beta  T2 =       0.1865703122D+00 E2=     -0.1498658989D+00
     beta-beta   T2 =       0.3048628929D-01 E2=     -0.2221045433D-01
 E2(B2PLYPD3) =    -0.1984974789D+00 E(B2PLYPD3) =    -0.19018159018105D+03
          IDoAtm=111111
          Differentiating once with respect to electric field.
                with respect to dipole field.
          Differentiating once with respect to nuclear coordinates.
 Keep R1 and R2 ints in memory in canonical form, NReq=79099610.
          There are     1 degrees of freedom in the 1st order CPHF.  IDoFFX=0 NUNeed=     1.
 LinEq1:  Iter=  0 NonCon=     1 RMS=2.05D-03 Max=9.37D-02 NDo=     1
 AX will form     1 AO Fock derivatives at one time.
 LinEq1:  Iter=  1 NonCon=     1 RMS=7.23D-04 Max=2.04D-02 NDo=     1
 LinEq1:  Iter=  2 NonCon=     1 RMS=3.73D-04 Max=6.07D-03 NDo=     1
 LinEq1:  Iter=  3 NonCon=     1 RMS=1.62D-04 Max=1.79D-03 NDo=     1
 LinEq1:  Iter=  4 NonCon=     1 RMS=8.29D-05 Max=1.56D-03 NDo=     1
 LinEq1:  Iter=  5 NonCon=     1 RMS=3.97D-05 Max=7.08D-04 NDo=     1
 LinEq1:  Iter=  6 NonCon=     1 RMS=2.34D-05 Max=4.35D-04 NDo=     1
 LinEq1:  Iter=  7 NonCon=     1 RMS=8.73D-06 Max=1.86D-04 NDo=     1
 LinEq1:  Iter=  8 NonCon=     1 RMS=2.88D-06 Max=8.26D-05 NDo=     1
 LinEq1:  Iter=  9 NonCon=     1 RMS=1.06D-06 Max=2.80D-05 NDo=     1
 LinEq1:  Iter= 10 NonCon=     1 RMS=3.95D-07 Max=8.01D-06 NDo=     1
 LinEq1:  Iter= 11 NonCon=     1 RMS=1.42D-07 Max=2.90D-06 NDo=     1
 LinEq1:  Iter= 12 NonCon=     1 RMS=4.11D-08 Max=5.49D-07 NDo=     1
 LinEq1:  Iter= 13 NonCon=     1 RMS=9.34D-09 Max=8.91D-08 NDo=     1
 LinEq1:  Iter= 14 NonCon=     1 RMS=1.99D-09 Max=2.66D-08 NDo=     1
 LinEq1:  Iter= 15 NonCon=     1 RMS=4.23D-10 Max=1.01D-08 NDo=     1
 LinEq1:  Iter= 16 NonCon=     1 RMS=1.40D-10 Max=3.57D-09 NDo=     1
 LinEq1:  Iter= 17 NonCon=     0 RMS=5.01D-11 Max=8.79D-10 NDo=     1
 Linear equations converged to 1.000D-10 1.000D-09 after    17 iterations.
 End of Minotr F.D. properties file   721 does not exist.
 End of Minotr F.D. properties file   722 does not exist.
 End of Minotr F.D. properties file   788 does not exist.
 Calling FoFJK, ICntrl=  10002127 FMM=F ISym2X=0 I1Cent= 0 IOpClX= 1 NMat=1 NMatS=1 NMatT=0.
 -------------------------------------------------------------------
 Center     Atomic                   Forces (Hartrees/Bohr)
 Number     Number              X              Y              Z
 -------------------------------------------------------------------
      1        6           0.000541244   -0.000147648    0.000504152
      2        8          -0.000026819    0.000039806   -0.000222421
      3        1          -0.000005432    0.000032044   -0.000043783
      4        1          -0.000552593    0.000105581   -0.000243767
      5        8           0.000115806   -0.000036053    0.000077957
      6        1          -0.000072204    0.000006271   -0.000072137
 -------------------------------------------------------------------
 Cartesian Forces:  Max     0.000552593 RMS     0.000239309
 -----------------------------------------------------------------------------------------------
                       Internal Coordinate Forces (Hartree/Bohr or radian)
  Cent   Atom   N1       Length/X         N2         Alpha/Y        N3         Beta/Z          J
 -----------------------------------------------------------------------------------------------
      1  C 
      2  O        1  -0.000222(     1)
      3  H        1   0.000019(     2)      2   0.000083(     7)
      4  H        1   0.000558(     3)      2   0.000023(     8)      3   0.000056(    12)     0
         X        4  -0.000000(     4)      1  -0.000169(     9)      2  -0.000016(    13)     0
      5  O        4  -0.000047(     5)      5  -0.000166(    10)      1   0.000083(    14)     0
      6  H        6  -0.000052(     6)      4   0.000161(    11)      5  -0.000002(    15)     0
 -----------------------------------------------------------------------------------------------
 Internal  Forces:  Max     0.000557695 RMS     0.000176237

 GradGradGradGradGradGradGradGradGradGradGradGradGradGradGradGradGradGrad
 Berny optimization.
 Search for a saddle point.
 Step number   4 out of a maximum of   50
 All quantities printed in internal units (Hartrees-Bohrs-Radians)
 Swapping is turned off.
 Update second derivatives using D2CorN and points    1    2    3    4
 The second derivative matrix:
                          R1        R2        A1        R3        A2
           R1           0.85396
           R2           0.03522   0.30317
           A1           0.05748  -0.00598   0.27594
           R3           0.04152   0.00507  -0.02054   0.27160
           A2           0.06212  -0.01929   0.08983  -0.00931   0.27372
           D1           0.00001   0.00000  -0.00001  -0.00003  -0.00001
           R101        -0.00263  -0.00020   0.00176   0.00201   0.00207
           AABS1       -0.00680  -0.00010   0.00450   0.00277   0.00761
           BABS1       -0.00107   0.00009   0.00035   0.00184   0.00020
           AABS2       -0.00334  -0.00186   0.00236  -0.00045  -0.00850
           RTS         -0.00947   0.00089   0.00314   0.02082   0.00272
           BABS2        0.00057  -0.00005  -0.00019  -0.00100  -0.00011
                          D1       R101      AABS1     BABS1     AABS2
           D1           0.05904
           R101         0.00000   0.48076
           AABS1       -0.00000  -0.00089   0.00097
           BABS1        0.00128  -0.00012  -0.00005   0.00197
           AABS2       -0.00000   0.00262   0.00722   0.00096   0.02244
           RTS          0.00012  -0.00066  -0.00580  -0.00049  -0.00122
           BABS2        0.00068   0.00008   0.00006   0.00193  -0.00050
                          RTS      BABS2
           RTS          0.00196
           BABS2        0.00034   0.00402
 ITU=  0  0  0  0
     Eigenvalues ---   -0.00676   0.00080   0.00463   0.00515   0.02474
     Eigenvalues ---    0.05908   0.18386   0.26267   0.29476   0.36729
     Eigenvalues ---    0.48085   0.87246
 Eigenvectors required to have negative eigenvalues:
                         AABS1      RTS      AABS2     BABS1      R3
   1                    0.72689   0.65433  -0.16396   0.08890  -0.06227
                         BABS2      A2        R1        A1        R2
   1                   -0.05546  -0.03284   0.01914  -0.01575  -0.00616
 RFO step:  Lambda0=6.643144108D-06 Lambda=-1.31580431D-05.
 Linear search not attempted -- option 19 set.
 Variable       Old X    -DE/DX   Delta X   Delta X   Delta X     New X
                                 (Linear)    (Quad)   (Total)
    R1        2.26660  -0.00022   0.00000   0.00035   0.00035   2.26695
    R2        2.08612   0.00002   0.00000  -0.00009  -0.00009   2.08603
    A1        2.14283   0.00008   0.00000  -0.00032  -0.00032   2.14252
    R3        2.12494   0.00056   0.00000  -0.00116  -0.00116   2.12377
    A2        2.13112   0.00002   0.00000  -0.00026  -0.00026   2.13086
    D1        3.14279   0.00006   0.00000  -0.00067  -0.00067   3.14212
   R101       1.83584  -0.00005   0.00000  -0.00004  -0.00004   1.83580
  AABS1       1.93502  -0.00017   0.00000   0.00103   0.00103   1.93606
  BABS1       3.03236   0.00008   0.00000   0.09909   0.09909   3.13145
  AABS2       1.62347   0.00016   0.00000   0.00305   0.00305   1.62652
   RTS        3.19309  -0.00005   0.00000   0.02962   0.02962   3.22271
  BABS2       3.20074  -0.00000   0.00000  -0.05054  -0.05054   3.15020
         Item               Value     Threshold  Converged?
 Maximum Force            0.000558     0.000450     NO 
 RMS     Force            0.000191     0.000300     YES
 Maximum Displacement     0.099093     0.001800     NO 
 RMS     Displacement     0.033246     0.001200     NO 
 Predicted change in Energy=-3.336005D-06
 GradGradGradGradGradGradGradGradGradGradGradGradGradGradGradGradGradGrad

 ---------------------------------------------------------------------------------------------------
                            Z-MATRIX (ANGSTROMS AND DEGREES)
   CD    Cent   Atom    N1       Length/X        N2       Alpha/Y        N3        Beta/Z          J
 ---------------------------------------------------------------------------------------------------
      1      1  C 
      2      2  O        1   1.199616(     1)
      3      3  H        1   1.103881(     2)      2  122.757(     7)
      4      4  H        1   1.123852(     3)      2  122.089(     8)      3  180.030(    12)      0
      5         X        4   2.000000(     4)      1   90.000(     9)      2  180.000(    13)      0
      6      5  O        4   1.705387(     5)      5  110.928(    10)      1  179.419(    14)      0
      7      6  H        6   0.971464(     6)      4   93.193(    11)      5  180.493(    15)      0
[...]


 ---------------------------------------------------------------------------------
              Anisotropic Spin Dipole Couplings in Principal Axis System
 ---------------------------------------------------------------------------------

       Atom             a.u.   MegaHertz   Gauss  10(-4) cm-1        Axes

              Baa    -0.0795   -10.666    -3.806    -3.558 -0.4442 -0.0011  0.8959
     1 C(13)  Bbb    -0.0748   -10.032    -3.580    -3.346 -0.0005  1.0000  0.0010
              Bcc     0.1542    20.698     7.386     6.904  0.8959 -0.0000  0.4442
 
              Baa    -0.1192     8.628     3.079     2.878 -0.2389 -0.0330  0.9705
     2 O(17)  Bbb    -0.1164     8.424     3.006     2.810 -0.0061  0.9995  0.0325
              Bcc     0.2357   -17.052    -6.085    -5.688  0.9710 -0.0019  0.2389
 
              Baa    -0.0081    -4.343    -1.550    -1.449 -0.0013  1.0000 -0.0007
     3 H(1)   Bbb    -0.0027    -1.458    -0.520    -0.486  0.5592  0.0013  0.8290
              Bcc     0.0109     5.801     2.070     1.935  0.8290  0.0007 -0.5592
 
              Baa    -0.0565   -30.162   -10.763   -10.061 -0.0040  1.0000  0.0071
     4 H(1)   Bbb    -0.0530   -28.278   -10.090    -9.433 -0.3055 -0.0080  0.9522
              Bcc     0.1095    58.440    20.853    19.494  0.9522  0.0017  0.3055
 
              Baa    -1.7858   129.216    46.108    43.102 -0.0021  1.0000  0.0006
     5 O(17)  Bbb    -1.7594   127.305    45.426    42.465 -0.2351 -0.0011  0.9720
              Bcc     3.5451  -256.522   -91.533   -85.566  0.9720  0.0019  0.2351
 
              Baa    -0.1231   -65.692   -23.441   -21.912 -0.0020  1.0000  0.0003
     6 H(1)   Bbb    -0.0293   -15.646    -5.583    -5.219  0.9702  0.0019  0.2423
              Bcc     0.1524    81.338    29.023    27.131 -0.2423 -0.0008  0.9702
 

 ---------------------------------------------------------------------------------

 Calling FoFJK, ICntrl=  10100127 FMM=F ISym2X=0 I1Cent= 0 IOpClX= 1 NMat=1 NMatS=1 NMatT=0.
 Full mass-weighted force constant matrix:
 Low frequencies --- -202.7704   -5.4937   -2.8834   -1.1458    0.0015    0.0016
 Low frequencies ---    0.0019   73.6771   78.4563
 ******    1 imaginary frequencies (negative Signs) ****** 
 Diagonal vibrational polarizability:
      168.2531414     121.2453814      11.3174405
 Harmonic frequencies (cm**-1), IR intensities (KM/Mole), Raman scattering
 activities (A**4/AMU), depolarization ratios for plane and unpolarized
 incident light, reduced masses (AMU), force constants (mDyne/A),
 and normal coordinates:
                      1                      2                      3
                      A                      A                      A
 Frequencies --   -202.7704                73.6771                78.4535
 Red. masses --      2.7487                 5.0613                 1.0337
 Frc consts  --      0.0666                 0.0162                 0.0037
 IR Inten    --     19.4357                28.9875                 3.0670
  Atom  AN      X      Y      Z        X      Y      Z        X      Y      Z
     1   6     0.30   0.00  -0.02     0.02   0.00   0.13    -0.00   0.04  -0.00
     2   8    -0.10  -0.00   0.00     0.32  -0.00   0.14    -0.01  -0.01  -0.00
     3   1     0.52  -0.00   0.34    -0.12  -0.06  -0.09     0.00  -0.63   0.00
     4   1     0.59   0.01  -0.30    -0.09   0.07   0.36     0.00   0.75  -0.01
     5   8    -0.20  -0.00   0.00    -0.28  -0.00  -0.23     0.01  -0.02   0.00
     6   1     0.15   0.00   0.09    -0.67  -0.02  -0.33     0.01  -0.21   0.01
                      4                      5                      6
                      A                      A                      A
 Frequencies --    177.5818               555.7736              1184.0571
 Red. masses --      1.1599                 1.1486                 1.3639
 Frc consts  --      0.0216                 0.2090                 1.1266
 IR Inten    --    126.4966               152.0072                 3.6878
  Atom  AN      X      Y      Z        X      Y      Z        X      Y      Z
     1   6    -0.00   0.06   0.00    -0.05  -0.00   0.02    -0.00  -0.17  -0.00
     2   8     0.00  -0.05   0.00     0.04   0.00   0.02     0.00   0.04   0.00
     3   1    -0.00   0.01  -0.00    -0.09   0.00  -0.04    -0.00   0.69  -0.00
     4   1    -0.00   0.20   0.00    -0.05  -0.00   0.01     0.00   0.70   0.00
     5   8     0.00  -0.07  -0.00    -0.05  -0.00  -0.05     0.00  -0.00   0.00
     6   1    -0.00   0.97   0.00     0.97   0.00   0.20    -0.00   0.01  -0.00
                      7                      8                      9
                      A                      A                      A
 Frequencies --   1250.0676              1526.7795              1809.0632
 Red. masses --      1.3677                 1.1320                 6.3937
 Frc consts  --      1.2592                 1.5547                12.3285
 IR Inten    --    108.7954                85.8575               152.3665
  Atom  AN      X      Y      Z        X      Y      Z        X      Y      Z
     1   6    -0.16  -0.00  -0.01     0.01   0.00   0.02     0.01  -0.00   0.55
     2   8     0.08   0.00  -0.00    -0.00  -0.00  -0.09     0.00   0.00  -0.37
     3   1     0.28  -0.00   0.68     0.34   0.00   0.59    -0.43   0.00  -0.21
     4   1     0.26  -0.00  -0.60    -0.40   0.00   0.61     0.44   0.00  -0.37
     5   8     0.01   0.00   0.00    -0.00  -0.00  -0.00    -0.01  -0.00   0.00
     6   1    -0.05  -0.00  -0.01     0.05   0.00   0.01    -0.03  -0.00  -0.01
                     10                     11                     12
                      A                      A                      A
 Frequencies --   2476.3678              2947.7064              3741.3160
 Red. masses --      1.0785                 1.0888                 1.0671
 Frc consts  --      3.8966                 5.5738                 8.8002
 IR Inten    --   1188.2347               107.7632                25.6048
  Atom  AN      X      Y      Z        X      Y      Z        X      Y      Z
     1   6    -0.07   0.00  -0.04    -0.08  -0.00   0.04     0.00  -0.00   0.00
     2   8    -0.00  -0.00  -0.01     0.00   0.00  -0.00     0.00   0.00  -0.00
     3   1    -0.12  -0.00   0.04     0.85  -0.00  -0.52    -0.00  -0.00  -0.00
     4   1     0.81  -0.00   0.56     0.05  -0.00   0.06    -0.01  -0.00  -0.01
     5   8     0.01   0.00  -0.00     0.00   0.00  -0.00     0.02   0.00  -0.06
     6   1     0.00   0.00   0.01     0.00   0.00   0.00    -0.24  -0.00   0.97

 -------------------
 - Thermochemistry -
 -------------------
 Temperature   298.150 Kelvin.  Pressure   1.00000 Atm.
 Atom     1 has atomic number  6 and mass  12.00000
 Atom     2 has atomic number  8 and mass  15.99491
 Atom     3 has atomic number  1 and mass   1.00783
 Atom     4 has atomic number  1 and mass   1.00783
 Atom     5 has atomic number  8 and mass  15.99491
 Atom     6 has atomic number  1 and mass   1.00783
 Molecular mass:    47.01330 amu.
 Principal axes and moments of inertia in atomic units:
                           1         2         3
     Eigenvalues --    38.93290 368.92633 407.85920
           X            0.84883  -0.52867  -0.00151
           Y            0.00132  -0.00073   1.00000
           Z            0.52867   0.84883  -0.00008
 This molecule is an asymmetric top.
 Rotational symmetry number  1.
 Rotational temperatures (Kelvin)      2.22469     0.23477     0.21236
 Rotational constants (GHZ):          46.35517     4.89187     4.42491
    1 imaginary frequencies ignored.
 Zero-point vibrational energy      94629.7 (Joules/Mol)
                                   22.61703 (Kcal/Mol)
 Warning -- explicit consideration of   4 degrees of freedom as
           vibrations may cause significant error
 Vibrational temperatures:    106.00   112.88   255.50   799.63  1703.59
          (Kelvin)           1798.57  2196.69  2602.84  3562.94  4241.09
                             5382.91
 
 Zero-point correction=                           0.036043 (Hartree/Particle)
 Thermal correction to Energy=                    0.041258
 Thermal correction to Enthalpy=                  0.042202
 Thermal correction to Gibbs Free Energy=         0.007474
 Sum of electronic and zero-point Energies=           -190.145550
 Sum of electronic and thermal Energies=              -190.140334
 Sum of electronic and thermal Enthalpies=            -190.139390
 Sum of electronic and thermal Free Energies=         -190.174118
 
                     E (Thermal)             CV                S
                      KCal/Mol        Cal/Mol-Kelvin    Cal/Mol-Kelvin
 Total                   25.890             13.373             73.092
 Electronic               0.000              0.000              1.377
 Translational            0.889              2.981             37.468
 Rotational               0.889              2.981             23.287
 Vibrational             24.112              7.412             10.959
 Vibration     1          0.599              1.966              4.053
 Vibration     2          0.600              1.964              3.929
 Vibration     3          0.628              1.870              2.354
 Vibration     4          0.911              1.127              0.532
                       Q            Log10(Q)             Ln(Q)
 Total Bot       0.364901D-03         -3.437825         -7.915885
 Total V=0       0.138215D+14         13.140554         30.257244
 Vib (Bot)       0.525568D-15        -15.279371        -35.182053
 Vib (Bot)    1  0.279785D+01          0.446824          1.028851
 Vib (Bot)    2  0.262566D+01          0.419239          0.965333
 Vib (Bot)    3  0.113197D+01          0.053835          0.123960
 Vib (Bot)    4  0.280801D+00         -0.551602         -1.270111
 Vib (V=0)       0.199071D+02          1.299008          2.991076
 Vib (V=0)    1  0.334218D+01          0.524029          1.206622
 Vib (V=0)    2  0.317285D+01          0.501449          1.154629
 Vib (V=0)    3  0.173748D+01          0.239920          0.552436
 Vib (V=0)    4  0.107345D+01          0.030783          0.070881
 Electronic      0.200000D+01          0.301030          0.693147
 Translational   0.126703D+08          7.102786         16.354770
 Rotational      0.273987D+05          4.437730         10.218250
 -------------------------------------------------------------------
 Center     Atomic                   Forces (Hartrees/Bohr)
 Number     Number              X              Y              Z
 -------------------------------------------------------------------
      1        6           0.000011126    0.000001423    0.000008327
      2        8          -0.000001733   -0.000000583   -0.000003862
      3        1          -0.000000511   -0.000000002   -0.000000478
      4        1          -0.000010740   -0.000001266   -0.000009203
      5        8           0.000009931    0.000000092    0.000009590
      6        1          -0.000008074    0.000000336   -0.000004374
 -------------------------------------------------------------------
 Cartesian Forces:  Max     0.000011126 RMS     0.000006194
 -----------------------------------------------------------------------------------------------
                       Internal Coordinate Forces (Hartree/Bohr or radian)
  Cent   Atom   N1       Length/X         N2         Alpha/Y        N3         Beta/Z          J
 -----------------------------------------------------------------------------------------------
      1  C 
      2  O        1  -0.000004(     1)
      3  H        1  -0.000000(     2)      2   0.000001(     7)
      4  H        1   0.000010(     3)      2  -0.000002(     8)      3  -0.000000(    12)     0
         X        4   0.000000(     4)      1  -0.000001(     9)      2   0.000001(    13)     0
      5  O        4  -0.000003(     5)      5  -0.000001(    10)      1  -0.000001(    14)     0
      6  H        6  -0.000002(     6)      4   0.000016(    11)      5   0.000001(    15)     0
 -----------------------------------------------------------------------------------------------
 Internal  Forces:  Max     0.000016303 RMS     0.000005146

 GradGradGradGradGradGradGradGradGradGradGradGradGradGradGradGradGradGrad
 Berny optimization.
 Search for a saddle point.
 Step number   1 out of a maximum of    2
 All quantities printed in internal units (Hartrees-Bohrs-Radians)
 Swapping is turned off.
 Second derivative matrix not updated -- analytic derivatives used.
 The second derivative matrix:
                          R1        R2        A1        R3        A2
           R1           0.85995
           R2           0.03493   0.30771
           A1           0.05724  -0.00566   0.27185
           R3           0.04302   0.00498  -0.02075   0.26667
           A2           0.05923  -0.01946   0.08947  -0.00868   0.26852
           D1          -0.00000  -0.00000   0.00000   0.00000   0.00000
           R101        -0.00329  -0.00027   0.00209   0.00232   0.00245
           AABS1       -0.00565  -0.00044   0.00442   0.00102   0.00710
           BABS1       -0.00001   0.00000  -0.00000  -0.00000   0.00000
           AABS2       -0.00254  -0.00199   0.00174  -0.00170  -0.01026
           RTS         -0.01332   0.00114   0.00436   0.02824   0.00332
           BABS2        0.00000   0.00000  -0.00000   0.00000  -0.00001
                          D1       R101      AABS1     BABS1     AABS2
           D1           0.05795
           R101        -0.00000   0.50219
           AABS1       -0.00000  -0.00085   0.00276
           BABS1        0.00165  -0.00000   0.00001   0.00144
           AABS2        0.00000   0.00229   0.00525   0.00001   0.03530
           RTS         -0.00001  -0.00142  -0.00599  -0.00002   0.00107
           BABS2        0.00078  -0.00000  -0.00000   0.00181   0.00001
                          RTS      BABS2
           RTS          0.00060
           BABS2        0.00000   0.00336
 ITU=  0
     Eigenvalues ---   -0.00762   0.00033   0.00441   0.00620   0.03556
     Eigenvalues ---    0.05801   0.17963   0.25961   0.29836   0.36384
     Eigenvalues ---    0.50228   0.87767
 Eigenvectors required to have negative eigenvalues:
                          RTS      AABS1     AABS2      R3        A2
   1                    0.80996   0.56889  -0.09858  -0.09255  -0.02893
                          R1        A1        R2       R101      BABS1
   1                    0.02424  -0.02376  -0.00620   0.00446   0.00095
 Angle between quadratic step and forces=  83.69 degrees.
 Linear search not attempted -- option 19 set.
 Variable       Old X    -DE/DX   Delta X   Delta X   Delta X     New X
                                 (Linear)    (Quad)   (Total)
    R1        2.26692  -0.00000   0.00000   0.00001   0.00001   2.26694
    R2        2.08608  -0.00000   0.00000  -0.00000  -0.00000   2.08607
    A1        2.14248   0.00000   0.00000  -0.00002  -0.00002   2.14246
    R3        2.12388   0.00001   0.00000  -0.00003  -0.00003   2.12385
    A2        2.13073  -0.00000   0.00000  -0.00001  -0.00001   2.13072
    D1        3.14155  -0.00000   0.00000   0.00007   0.00007   3.14162
   R101       1.83584  -0.00000   0.00000  -0.00000  -0.00000   1.83584
  AABS1       1.94591  -0.00000   0.00000   0.00041   0.00041   1.94632
  BABS1       3.14413  -0.00000   0.00000  -0.00327  -0.00327   3.14087
  AABS2       1.62538   0.00002   0.00000   0.00038   0.00038   1.62576
   RTS        3.22003  -0.00000   0.00000   0.00062   0.00062   3.22066
  BABS2       3.14003   0.00000   0.00000   0.00194   0.00194   3.14197
         Item               Value     Threshold  Converged?
 Maximum Force            0.000016     0.000450     YES
 RMS     Force            0.000006     0.000300     YES
 Maximum Displacement     0.003265     0.001800     NO 
 RMS     Displacement     0.001123     0.001200     YES
 Predicted change in Energy=-4.248948D-09
 GradGradGradGradGradGradGradGradGradGradGradGradGradGradGradGradGradGrad

 1\1\GINC-B451\Freq\UB2PLYPD3-FC\CC-pVTZ\C1H3O2(2)\KMOORE\03-Jul-2019\1
 \\#N Geom=AllCheck Guess=TCheck SCRF=Check GenChk UB2PLYPD3(FC)/CC-pVT
 Z Freq\\geom 0\\0,2\C\O,1,R1\H,1,R2,2,A1\H,1,R3,2,A2,3,D1,0\X,4,2.,1,9
 0.,2,180.,0\O,4,RTS,5,AABS1,1,BABS1,0\H,6,R101,4,AABS2,5,BABS2,0\\R1=1
 .19960464\R2=1.10390401\A1=122.75497683\R3=1.12391126\A2=122.08166855\
 D1=179.99749548\R101=0.97148531\AABS1=111.49260071\BABS1=180.14545158\
 AABS2=93.12747646\RTS=1.70396846\BABS2=179.91070525\\Version=ES64L-G09
 RevE.01\HF=-189.983335\MP2=-190.1815924\S2=0.756708\S2-1=0.\S2A=0.7500
 32\RMSD=2.981e-10\RMSF=6.194e-06\ZeroPoint=0.0360425\Thermal=0.0412581
 \Dipole=0.1139682,-0.0001161,-0.1892645\DipoleDeriv=1.1705003,0.000689
 3,0.1225676,0.0000225,0.1792134,0.0001017,0.8833936,0.0014963,1.229923
 1,-0.4418363,-0.000069,0.0041425,0.0000683,-0.2962512,0.0000254,-0.593
 7997,-0.0009688,-1.0078698,-0.2336114,-0.0001527,0.1056229,-0.0000401,
 0.0914668,-0.000032,0.0046319,-0.0001306,-0.0612214,-0.9877329,-0.0013
 228,-0.3968916,-0.0013747,0.0705632,-0.0005296,-0.3128705,-0.0004684,-
 0.1042086,0.0536366,0.0007257,0.0791889,0.0010566,-0.3744778,0.0001582
 ,0.0707425,0.0000925,-0.1488383,0.4390437,0.0001294,0.0853696,0.000267
 3,0.3294857,0.0002763,-0.0520978,-0.0000209,0.092215\Polar=44.9637716,
 0.0409373,13.9783895,7.9616189,0.0117377,28.7453835\PG=C01 [X(C1H3O2)]
 \NImag=1\\0.54708525,0.00001795,0.16806943,-0.02750350,-0.00000294,0.9
 5234503,-0.10163245,-0.00000479,-0.00179533,0.07034066,-0.00000452,-0.
 05578984,-0.00000176,0.00000190,0.01882292,0.00764362,0.00000111,-0.77
 375294,0.00087689,0.00000379,0.85994971,-0.23575103,-0.00000037,0.0846
 3238,0.01574728,0.00000028,0.01452630,0.23838643,0.00000225,-0.0561923
 9,0.00000203,0.00000050,0.01850782,-0.00000069,-0.00000063,0.01890276,
 0.08631258,-0.00000053,-0.09760932,0.03572742,0.00000055,-0.04197322,-
 0.11046240,0.00000010,0.13178882,-0.18458060,0.00000504,-0.02558581,0.
 01486754,0.00000126,-0.03660335,-0.01875782,-0.00000694,-0.01398111,0.
 16458749,0.00004227,-0.05683412,0.00007638,0.00000080,0.01861903,-0.00
 003880,0.00000103,0.01901921,-0.00000568,-0.00005912,0.01961627,-0.063
 64124,0.00000871,-0.07887369,-0.03363311,-0.00000147,-0.04417270,0.012
 38137,-0.00000312,0.00771379,0.07178829,-0.00003905,0.11835040,-0.0207
 8992,-0.00001822,-0.02875244,-0.00207878,-0.00000311,0.01143419,-0.000
 93007,0.00000686,0.00243726,0.02508474,0.00002316,0.00758503,0.0359408
 0,-0.00005022,0.00063320,-0.00006347,-0.00000432,0.00042860,0.00002695
 ,-0.00000447,-0.00047679,0.00000454,0.00006538,-0.00079552,0.00001771,
 0.00010062,0.00135261,-0.00400033,-0.00000554,-0.00789097,-0.00200734,
 -0.00000301,0.00281537,-0.00060399,0.00000231,0.00080470,0.00763863,0.
 00001192,-0.00172010,-0.10879258,-0.00036174,0.48084678,-0.00433124,0.
 00000040,-0.00099530,0.00275574,0.00000419,0.00212235,0.00130521,-0.00
 000203,-0.00003373,-0.00120135,-0.00000814,0.00551966,-0.03722676,-0.0
 0010700,0.10776561,0.03869840,-0.00000773,0.00011372,-0.00001024,0.000
 00590,-0.00058853,0.00000764,0.00000417,0.00023938,0.00000103,-0.00000
 562,0.00037512,0.00001722,-0.00010930,-0.00114210,0.00035606,0.0001125
 8,0.00100240,0.00118887,-0.00000080,0.00578189,0.00083147,0.00000191,-
 0.00286622,-0.00047366,-0.00000064,-0.00072478,-0.00325664,-0.00000477
 ,-0.00129770,0.11608854,0.00037601,-0.47485578,-0.11437858,-0.00037171
 ,0.47396260\\-0.00001113,-0.00000142,-0.00000833,0.00000173,0.00000058
 ,0.00000386,0.00000051,0.,0.00000048,0.00001074,0.00000127,0.00000920,
 -0.00000993,-0.00000009,-0.00000959,0.00000807,-0.00000034,0.00000437\
 \\@


 Ideas are like rabbits. You get a couple and learn
 how to handle them, and pretty soon you have a dozen.
                                    -- John Steinbeck
 Job cpu time:       0 days  0 hours 55 minutes 43.5 seconds.
 File lengths (MBytes):  RWF=   2954 Int=      0 D2E=      0 Chk=      5 Scr=      2
 Normal termination of Gaussian 09 at Wed Jul  3 18:12:36 2019.
