 Entering Gaussian System, Link 0=g09
 Initial command:
 /soft/gaussian/09-e.01/g09/l1.exe "/blues/gpfs/home/kmoore/Gau-10020.inp" -scrdir="/blues/gpfs/home/kmoore/"
 Entering Link 1 = /soft/gaussian/09-e.01/g09/l1.exe PID=     10021.
  
 Copyright (c) 1988,1990,1992,1993,1995,1998,2003,2009,2015,
            Gaussian, Inc.  All Rights Reserved.
  
 This is part of the Gaussian(R) 09 program.  It is based on
 the Gaussian(R) 03 system (copyright 2003, Gaussian, Inc.),
 the Gaussian(R) 98 system (copyright 1998, Gaussian, Inc.),
 the Gaussian(R) 94 system (copyright 1995, Gaussian, Inc.),
 the Gaussian 92(TM) system (copyright 1992, Gaussian, Inc.),
 the Gaussian 90(TM) system (copyright 1990, Gaussian, Inc.),
 the Gaussian 88(TM) system (copyright 1988, Gaussian, Inc.),
 the Gaussian 86(TM) system (copyright 1986, Carnegie Mellon
 University), and the Gaussian 82(TM) system (copyright 1983,
 Carnegie Mellon University). Gaussian is a federally registered
 trademark of Gaussian, Inc.
  
 This software contains proprietary and confidential information,
 including trade secrets, belonging to Gaussian, Inc.
  
 This software is provided under written license and may be
 used, copied, transmitted, or stored only in accord with that
 written license.
  
 The following legend is applicable only to US Government
 contracts under FAR:
  
                    RESTRICTED RIGHTS LEGEND
  
 Use, reproduction and disclosure by the US Government is
 subject to restrictions as set forth in subparagraphs (a)
 and (c) of the Commercial Computer Software - Restricted
 Rights clause in FAR 52.227-19.
  
 Gaussian, Inc.
 340 Quinnipiac St., Bldg. 40, Wallingford CT 06492
  
  
 ---------------------------------------------------------------
 Warning -- This program may not be used in any manner that
 competes with the business of Gaussian, Inc. or will provide
 assistance to any competitor of Gaussian, Inc.  The licensee
 of this program is prohibited from giving any competitor of
 Gaussian, Inc. access to this program.  By using this program,
 the user acknowledges that Gaussian, Inc. is engaged in the
 business of creating and licensing software in the field of
 computational chemistry and represents and warrants to the
 licensee that it is not a competitor of Gaussian, Inc. and that
 it will not use this program in any manner prohibited above.
 ---------------------------------------------------------------
  

 Cite this work as:
 Gaussian 09, Revision E.01,
 M. J. Frisch, G. W. Trucks, H. B. Schlegel, G. E. Scuseria, 
 M. A. Robb, J. R. Cheeseman, G. Scalmani, V. Barone, B. Mennucci, 
 G. A. Petersson, H. Nakatsuji, M. Caricato, X. Li, H. P. Hratchian, 
 A. F. Izmaylov, J. Bloino, G. Zheng, J. L. Sonnenberg, M. Hada, 
 M. Ehara, K. Toyota, R. Fukuda, J. Hasegawa, M. Ishida, T. Nakajima, 
 Y. Honda, O. Kitao, H. Nakai, T. Vreven, J. A. Montgomery, Jr., 
 J. E. Peralta, F. Ogliaro, M. Bearpark, J. J. Heyd, E. Brothers, 
 K. N. Kudin, V. N. Staroverov, T. Keith, R. Kobayashi, J. Normand, 
 K. Raghavachari, A. Rendell, J. C. Burant, S. S. Iyengar, J. Tomasi, 
 M. Cossi, N. Rega, J. M. Millam, M. Klene, J. E. Knox, J. B. Cross, 
 V. Bakken, C. Adamo, J. Jaramillo, R. Gomperts, R. E. Stratmann, 
 O. Yazyev, A. J. Austin, R. Cammi, C. Pomelli, J. W. Ochterski, 
 R. L. Martin, K. Morokuma, V. G. Zakrzewski, G. A. Voth, 
 P. Salvador, J. J. Dannenberg, S. Dapprich, A. D. Daniels, 
 O. Farkas, J. B. Foresman, J. V. Ortiz, J. Cioslowski, 
 and D. J. Fox, Gaussian, Inc., Wallingford CT, 2013.
 
 ******************************************
 Gaussian 09:  ES64L-G09RevE.01 30-Nov-2015
                27-Nov-2018 
 ******************************************
 %chk=tmp
 %NProcShared= 10
 Will use up to   10 processors via shared memory.
 ------------------------------------------------------
 # b2plypd3/cc-pvtz polar # int=ultrafine nosym scf=xqc
 ------------------------------------------------------
 1/38=1/1;
 2/12=2,15=1,17=6,18=5,40=1/2;
 3/5=16,6=1,11=9,16=1,25=1,30=1,71=2,74=-60,75=-5,140=1/1,2,3;
 4//1;
 5/5=2,8=3,13=1,38=5,98=1/2,8;
 8/6=4,8=1,10=1,19=10,30=-1/1;
 9/15=5,16=-3/6;
 10/6=2,13=10,21=1,31=1/2;
 8/6=4,8=1,10=1,19=10,30=-1/11,4;
 10/5=1,20=4,31=1/2;
 11/12=2,14=10,16=1,17=2,28=-2,31=1,32=3,42=3/12;
 6/7=2,8=2,9=2,10=2/1;
 99/5=1,9=1/99;
 ---------
 prop calc
 ---------
 Symbolic Z-matrix:
 Charge =  0 Multiplicity = 1
 N                     0.93525  -0.00683   0.01859 
 N                     2.17587   0.08024   0.07672 
 H                     0.46224   0.75485   0.52716 
 H                     2.64889  -0.68145  -0.43185 
 
                          Input orientation:                          
 ---------------------------------------------------------------------
 Center     Atomic      Atomic             Coordinates (Angstroms)
 Number     Number       Type             X           Y           Z
 ---------------------------------------------------------------------
      1          7           0        0.935250   -0.006830    0.018590
      2          7           0        2.175870    0.080240    0.076720
      3          1           0        0.462240    0.754850    0.527160
      4          1           0        2.648890   -0.681450   -0.431850
 ---------------------------------------------------------------------
                    Distance matrix (angstroms):
                    1          2          3          4
     1  N    0.000000
     2  N    1.245029   0.000000
     3  H    1.030795   1.895923   0.000000
     4  H    1.895935   1.030807   2.786413   0.000000
 Symmetry turned off by external request.
 Stoichiometry    H2N2
 Framework group  C1[X(H2N2)]
 Deg. of freedom     6
 Full point group                 C1      NOp   1
 Rotational constants (GHZ):    337.9813102     38.0837268     34.2270262
 Standard basis: CC-pVTZ (5D, 7F)
    88 basis functions,   138 primitive gaussians,   100 cartesian basis functions
     8 alpha electrons        8 beta electrons
       nuclear repulsion energy        32.1111599550 Hartrees.
 NAtoms=    4 NActive=    4 NUniq=    4 SFac= 1.00D+00 NAtFMM=   60 NAOKFM=F Big=F
 Integral buffers will be    131072 words long.
 Regular integral format.
 Two-electron integral symmetry is turned off.
 Nuclear repulsion after empirical dispersion term =       32.1103302506 Hartrees.
 One-electron integrals computed using PRISM.
 PrsmSu:  requested number of processors reduced to:   4 ShMem   1 Linda.
 NBasis=    88 RedAO= T EigKep=  1.41D-03  NBF=    88
 NBsUse=    88 1.00D-06 EigRej= -1.00D+00 NBFU=    88
 ExpMin= 1.03D-01 ExpMax= 1.14D+04 ExpMxC= 3.89D+02 IAcc=3 IRadAn=         5 AccDes= 0.00D+00
 Harris functional with IExCor=  419 and IRadAn=       5 diagonalized for initial guess.
 HarFok:  IExCor=  419 AccDes= 0.00D+00 IRadAn=         5 IDoV= 1 UseB2=F ITyADJ=14
 ICtDFT=  3500011 ScaDFX=  1.000000  1.000000  1.000000  1.000000
 FoFCou: FMM=F IPFlag=           0 FMFlag=      100000 FMFlg1=           0
         NFxFlg=           0 DoJE=T BraDBF=F KetDBF=T FulRan=T
         wScrn=  0.000000 ICntrl=     500 IOpCl=  0 I1Cent=   200000004 NGrid=           0
         NMat0=    1 NMatS0=      1 NMatT0=    0 NMatD0=    1 NMtDS0=    0 NMtDT0=    0
 Symmetry not used in FoFCou.
 Keep R1 ints in memory in canonical form, NReq=9686142.
 Requested convergence on RMS density matrix=1.00D-08 within  64 cycles.
 Requested convergence on MAX density matrix=1.00D-06.
 Requested convergence on             energy=1.00D-06.
 No special actions if energy rises.
 Integral accuracy reduced to 1.0D-05 until final iterations.
 Initial convergence to 1.0D-05 achieved.  Increase integral accuracy.
 SCF Done:  E(RB2PLYPD3) =  -110.463040964     A.U. after   10 cycles
            NFock= 10  Conv=0.71D-08     -V/T= 2.0049
 QCSCF skips out because SCF is already converged.
 DoSCS=T DFT=T ScalE2(SS,OS)=  0.270000  0.270000
 ExpMin= 1.03D-01 ExpMax= 1.14D+04 ExpMxC= 3.89D+02 IAcc=3 IRadAn=         5 AccDes= 0.00D+00
 HarFok:  IExCor=  205 AccDes= 0.00D+00 IRadAn=         5 IDoV=-2 UseB2=F ITyADJ=14
 ICtDFT= 12500011 ScaDFX=  1.000000  1.000000  1.000000  1.000000
 Range of M.O.s used for correlation:     3    88
 NBasis=    88 NAE=     8 NBE=     8 NFC=     2 NFV=     0
 NROrb=     86 NOA=     6 NOB=     6 NVA=    80 NVB=    80
 DoSCS=T DFT=T ScalE2(SS,OS)=  0.270000  0.270000
 Disk-based method using ON**2 memory for  6 occupieds at a time.
 Permanent disk used for amplitudes=      498080 words.
 Estimated scratch disk usage=    11092000 words.
 Actual    scratch disk usage=    11092000 words.
 GetIJB would need an additional    71027450 words of memory to use all  10 processors.
 JobTyp=1 Pass  1:  I=   3 to   8 NPSUse=  3 ParTrn=F ParDer=T DoDerP=T.
 (rs|ai) integrals will be sorted in core.
 PrsmSu:  requested number of processors reduced to:   4 ShMem   1 Linda.
 Spin components of T(2) and E(2):
     alpha-alpha T2 =       0.2311270164D-01 E2=     -0.1619107011D-01
     alpha-beta  T2 =       0.1494523872D+00 E2=     -0.1021389729D+00
     beta-beta   T2 =       0.2311270164D-01 E2=     -0.1619107011D-01
 E2(B2PLYPD3) =    -0.1345211132D+00 E(B2PLYPD3) =    -0.11059756207722D+03
          Differentiating once with respect to electric field.
                with respect to dipole field.
          Electric field/nuclear overlap derivatives assumed to be zero.
 Keep R1 ints in memory in canonical form, NReq=9665297.
          There are     3 degrees of freedom in the 1st order CPHF.  IDoFFX=0 NUNeed=     3.
      3 vectors produced by pass  0 Test12= 2.13D-14 3.33D-08 XBig12= 1.16D+01 2.66D+00.
 AX will form     3 AO Fock derivatives at one time.
      3 vectors produced by pass  1 Test12= 2.13D-14 3.33D-08 XBig12= 3.29D+00 6.65D-01.
      3 vectors produced by pass  2 Test12= 2.13D-14 3.33D-08 XBig12= 1.94D-01 1.81D-01.
      3 vectors produced by pass  3 Test12= 2.13D-14 3.33D-08 XBig12= 4.90D-03 2.04D-02.
      3 vectors produced by pass  4 Test12= 2.13D-14 3.33D-08 XBig12= 5.65D-05 3.04D-03.
      3 vectors produced by pass  5 Test12= 2.13D-14 3.33D-08 XBig12= 5.66D-07 2.44D-04.
      3 vectors produced by pass  6 Test12= 2.13D-14 3.33D-08 XBig12= 4.23D-09 2.37D-05.
      3 vectors produced by pass  7 Test12= 2.13D-14 3.33D-08 XBig12= 2.09D-11 1.23D-06.
      2 vectors produced by pass  8 Test12= 2.13D-14 3.33D-08 XBig12= 1.20D-13 1.25D-07.
 InvSVY:  IOpt=1 It=  1 EMax= 8.88D-16
 Solved reduced A of dimension    26 with     3 vectors.
 End of Minotr F.D. properties file   721 does not exist.
 End of Minotr F.D. properties file   722 does not exist.
 End of Minotr F.D. properties file   788 does not exist.
 MDV=    33554432.
 DoSCS=T DFT=T ScalE2(SS,OS)=  0.270000  0.270000
 Form MO integral derivatives with frozen-active canonical formalism.
 Discarding MO integrals.
 Reordered first order wavefunction length =       819200
 In DefCFB: NBatch=  1 ICI=  8 ICA= 80 LFMax= 27
            Large arrays: LIAPS=     5632000 LIARS=     2240000 words.
 Semi-Direct transformation.
 ModeAB=           2 MOrb=             8 LenV=      33187435
 LASXX=      2538806 LTotXX=     2538806 LenRXX=     2538806
 LTotAB=     2624176 MaxLAS=     3555200 LenRXY=     3555200
 NonZer=     5077612 LenScr=     7864320 LnRSAI=           0
 LnScr1=           0 LExtra=           0 Total=     13958326
 MaxDsk=          -1 SrtSym=           F ITran=            4
 GetIJB would need an additional    26842741 words of memory to use all  10 processors.
 JobTyp=0 Pass  1:  I=   1 to   8.
 DoSCS=T DFT=T ScalE2(SS,OS)=  0.270000  0.270000
 Spin components of T(2) and E(2):
     alpha-alpha T2 =       0.2311270164D-01 E2=     -0.1619107011D-01
     alpha-beta  T2 =       0.1494523872D+00 E2=     -0.1021389729D+00
     beta-beta   T2 =       0.2311270164D-01 E2=     -0.1619107011D-01
 E2(B2PLYPD3) =    -0.1345211132D+00 E(B2PLYPD3) =    -0.11059756207722D+03
          IDoAtm=1111
          Differentiating once with respect to electric field.
                with respect to dipole field.
          Differentiating once with respect to nuclear coordinates.
 Keep R1 ints in memory in canonical form, NReq=9664519.
          There are     1 degrees of freedom in the 1st order CPHF.  IDoFFX=0 NUNeed=     1.
 LinEq1:  Iter=  0 NonCon=     1 RMS=2.26D-03 Max=3.45D-02 NDo=     1
 AX will form     1 AO Fock derivatives at one time.
 LinEq1:  Iter=  1 NonCon=     1 RMS=7.69D-04 Max=8.77D-03 NDo=     1
 LinEq1:  Iter=  2 NonCon=     1 RMS=1.65D-04 Max=1.67D-03 NDo=     1
 LinEq1:  Iter=  3 NonCon=     1 RMS=3.99D-05 Max=5.53D-04 NDo=     1
 LinEq1:  Iter=  4 NonCon=     1 RMS=7.03D-06 Max=8.51D-05 NDo=     1
 LinEq1:  Iter=  5 NonCon=     1 RMS=7.66D-07 Max=7.30D-06 NDo=     1
 LinEq1:  Iter=  6 NonCon=     1 RMS=9.40D-08 Max=1.00D-06 NDo=     1
 LinEq1:  Iter=  7 NonCon=     1 RMS=6.37D-08 Max=1.08D-06 NDo=     1
 LinEq1:  Iter=  8 NonCon=     1 RMS=1.74D-08 Max=1.60D-07 NDo=     1
 LinEq1:  Iter=  9 NonCon=     1 RMS=1.31D-09 Max=9.67D-09 NDo=     1
 LinEq1:  Iter= 10 NonCon=     1 RMS=1.18D-10 Max=9.50D-10 NDo=     1
 LinEq1:  Iter= 11 NonCon=     0 RMS=7.15D-12 Max=5.63D-11 NDo=     1
 Linear equations converged to 1.000D-10 1.000D-09 after    11 iterations.
 End of Minotr F.D. properties file   721 does not exist.
 End of Minotr F.D. properties file   722 does not exist.
 End of Minotr F.D. properties file   788 does not exist.
 DoSCS=T DFT=T ScalE2(SS,OS)=  0.270000  0.270000
 R2 and R3 integrals will be kept in memory, NReq=    27447550.
 CoulSu:  requested number of processors reduced to:   4 ShMem   1 Linda.
 DD1Dir will call FoFMem   1 times, MxPair=       100
 NAB=    36 NAA=    28 NBB=     0.
 Discarding MO integrals.

 **********************************************************************

            Population analysis using the SCF density.

 **********************************************************************

 Alpha  occ. eigenvalues --  -14.89875 -14.89786  -1.16005  -0.80417  -0.58237
 Alpha  occ. eigenvalues --   -0.51801  -0.44491  -0.30270
 Alpha virt. eigenvalues --    0.01474   0.09655   0.09977   0.34338   0.42570
 Alpha virt. eigenvalues --    0.44259   0.49391   0.51968   0.55001   0.55102
 Alpha virt. eigenvalues --    0.61012   0.65515   0.67822   0.70595   0.79721
 Alpha virt. eigenvalues --    0.83132   0.91537   1.02245   1.14948   1.26005
 Alpha virt. eigenvalues --    1.32008   1.34384   1.49606   1.55886   1.59873
 Alpha virt. eigenvalues --    1.69164   1.72611   1.75942   1.85352   2.03437
 Alpha virt. eigenvalues --    2.35282   2.63169   2.93129   3.01049   3.07889
 Alpha virt. eigenvalues --    3.17572   3.24015   3.27065   3.35278   3.40582
 Alpha virt. eigenvalues --    3.44379   3.50278   3.50542   3.56383   3.63772
 Alpha virt. eigenvalues --    3.73032   3.80006   3.91001   3.91155   3.95567
 Alpha virt. eigenvalues --    3.95645   3.97411   4.06079   4.09227   4.19605
 Alpha virt. eigenvalues --    4.31104   4.34924   4.53493   4.67773   4.72203
 Alpha virt. eigenvalues --    4.80625   4.81330   4.87527   4.96598   4.99055
 Alpha virt. eigenvalues --    5.04234   5.17630   5.32612   5.56320   5.64909
 Alpha virt. eigenvalues --    5.70853   5.74964   5.93273   5.98320   6.06317
 Alpha virt. eigenvalues --    6.29685   6.44048   7.00720   9.51225  13.49857
          Condensed to atoms (all electrons):
               1          2          3          4
     1  N    6.476258   0.444060   0.324202  -0.073870
     2  N    0.444060   6.476263  -0.073871   0.324199
     3  H    0.324202  -0.073871   0.568603   0.010414
     4  H   -0.073870   0.324199   0.010414   0.568606
 Mulliken charges:
               1
     1  N   -0.170650
     2  N   -0.170651
     3  H    0.170651
     4  H    0.170651
 Sum of Mulliken charges =  -0.00000
 Mulliken charges with hydrogens summed into heavy atoms:
               1
     1  N    0.000000
     2  N   -0.000000
 Electronic spatial extent (au):  <R**2>=            197.6991
 Charge=             -0.0000 electrons
 Dipole moment (field-independent basis, Debye):
    X=              0.0000    Y=              0.0000    Z=              0.0000  Tot=              0.0000
 Quadrupole moment (field-independent basis, Debye-Ang):
   XX=            -11.5857   YY=            -11.5249   ZZ=            -11.8557
   XY=             -3.2845   XZ=             -2.1930   YZ=              0.3986
 Traceless Quadrupole moment (field-independent basis, Debye-Ang):
   XX=              0.0698   YY=              0.1305   ZZ=             -0.2003
   XY=             -3.2845   XZ=             -2.1930   YZ=              0.3986
 Octapole moment (field-independent basis, Debye-Ang**2):
  XXX=            -54.0666  YYY=             -1.2690  ZZZ=             -1.6949  XYY=            -18.1688
  XXY=            -10.6438  XXZ=             -7.3749  XZZ=            -18.6514  YZZ=             -0.3972
  YYZ=             -0.5200  XYZ=              0.3831
 Hexadecapole moment (field-independent basis, Debye-Ang**3):
 XXXX=           -211.7820 YYYY=            -14.2890 ZZZZ=            -12.5913 XXXY=            -28.9717
 XXXZ=            -20.5954 YYYX=             -2.6556 YYYZ=             -0.9291 ZZZX=             -2.5893
 ZZZY=             -1.3170 XXYY=            -37.5819 XXZZ=            -38.4604 YYZZ=             -4.2194
 XXYZ=              0.4082 YYXZ=             -1.5835 ZZXY=             -1.0102
 N-N= 3.211033025061D+01 E-N=-3.228641814808D+02  KE= 1.099254991855D+02
  Exact polarizability:  21.759  -3.011  13.434  -2.010   2.565  11.305
 Approx polarizability:  27.069  -2.731  14.398  -1.823   1.963  12.768
 1\1\GINC-B447\SP\RB2PLYPD3-FC\CC-pVTZ\H2N2\KMOORE\27-Nov-2018\0\\# b2p
 lypd3/cc-pvtz polar # int=ultrafine nosym scf=xqc\\prop calc\\0,1\N,0,
 0.93525,-0.00683,0.01859\N,0,2.17587,0.08024,0.07672\H,0,0.46224,0.754
 85,0.52716\H,0,2.64889,-0.68145,-0.43185\\Version=ES64L-G09RevE.01\HF=
 -110.463041\MP2=-110.5975621\RMSD=7.077e-09\Dipole=0.0000008,0.0000006
 ,0.0000032\Polar=21.7587167,-3.0108951,13.4340675,-2.0103953,2.5652236
 ,11.3049119\PG=C01 [X(H2N2)]\\@


 THE MOST SERIOUS THREAT TO THE SURVIVAL OF MANKIND IS NOT NOW
 IGNORANCE IN THE TRADITIONAL SENSE,
 BUT A MORALLY NEUTRAL, AN INSENSITIVE OR INHIBITED HUMAN INTELLIGENCE.

                     -- MARGO JEFFERSON IN NEWSWEEK, SEPTEMBER 2, 1974
 Job cpu time:       0 days  0 hours  2 minutes 41.5 seconds.
 File lengths (MBytes):  RWF=    287 Int=      0 D2E=      0 Chk=      5 Scr=      2
 Normal termination of Gaussian 09 at Tue Nov 27 10:46:38 2018.
