 Entering Gaussian System, Link 0=g09
 Input=geom.com
 Output=geom.log
 Initial command:
 /soft/gaussian/09-e.01/g09/l1.exe "/lcrc/project/CMRP/calc/abst/3_OH_NH3/regts-noanharm/Gau-6291.inp" -scrdir="/lcrc/project/CMRP/calc/abst/3_OH_NH3/regts-noanharm/"
 Entering Link 1 = /soft/gaussian/09-e.01/g09/l1.exe PID=      6292.
  
 Copyright (c) 1988,1990,1992,1993,1995,1998,2003,2009,2015,
            Gaussian, Inc.  All Rights Reserved.
  
 This is part of the Gaussian(R) 09 program.  It is based on
 the Gaussian(R) 03 system (copyright 2003, Gaussian, Inc.),
 the Gaussian(R) 98 system (copyright 1998, Gaussian, Inc.),
 the Gaussian(R) 94 system (copyright 1995, Gaussian, Inc.),
 the Gaussian 92(TM) system (copyright 1992, Gaussian, Inc.),
 the Gaussian 90(TM) system (copyright 1990, Gaussian, Inc.),
 the Gaussian 88(TM) system (copyright 1988, Gaussian, Inc.),
 the Gaussian 86(TM) system (copyright 1986, Carnegie Mellon
 University), and the Gaussian 82(TM) system (copyright 1983,
 Carnegie Mellon University). Gaussian is a federally registered
 trademark of Gaussian, Inc.
  
 This software contains proprietary and confidential information,
 including trade secrets, belonging to Gaussian, Inc.
  
 This software is provided under written license and may be
 used, copied, transmitted, or stored only in accord with that
 written license.
  
 The following legend is applicable only to US Government
 contracts under FAR:
  
                    RESTRICTED RIGHTS LEGEND
  
 Use, reproduction and disclosure by the US Government is
 subject to restrictions as set forth in subparagraphs (a)
 and (c) of the Commercial Computer Software - Restricted
 Rights clause in FAR 52.227-19.
  
 Gaussian, Inc.
 340 Quinnipiac St., Bldg. 40, Wallingford CT 06492
  
  
 ---------------------------------------------------------------
 Warning -- This program may not be used in any manner that
 competes with the business of Gaussian, Inc. or will provide
 assistance to any competitor of Gaussian, Inc.  The licensee
 of this program is prohibited from giving any competitor of
 Gaussian, Inc. access to this program.  By using this program,
 the user acknowledges that Gaussian, Inc. is engaged in the
 business of creating and licensing software in the field of
 computational chemistry and represents and warrants to the
 licensee that it is not a competitor of Gaussian, Inc. and that
 it will not use this program in any manner prohibited above.
 ---------------------------------------------------------------
  

 Cite this work as:
 Gaussian 09, Revision E.01,
 M. J. Frisch, G. W. Trucks, H. B. Schlegel, G. E. Scuseria, 
 M. A. Robb, J. R. Cheeseman, G. Scalmani, V. Barone, B. Mennucci, 
 G. A. Petersson, H. Nakatsuji, M. Caricato, X. Li, H. P. Hratchian, 
 A. F. Izmaylov, J. Bloino, G. Zheng, J. L. Sonnenberg, M. Hada, 
 M. Ehara, K. Toyota, R. Fukuda, J. Hasegawa, M. Ishida, T. Nakajima, 
 Y. Honda, O. Kitao, H. Nakai, T. Vreven, J. A. Montgomery, Jr., 
 J. E. Peralta, F. Ogliaro, M. Bearpark, J. J. Heyd, E. Brothers, 
 K. N. Kudin, V. N. Staroverov, T. Keith, R. Kobayashi, J. Normand, 
 K. Raghavachari, A. Rendell, J. C. Burant, S. S. Iyengar, J. Tomasi, 
 M. Cossi, N. Rega, J. M. Millam, M. Klene, J. E. Knox, J. B. Cross, 
 V. Bakken, C. Adamo, J. Jaramillo, R. Gomperts, R. E. Stratmann, 
 O. Yazyev, A. J. Austin, R. Cammi, C. Pomelli, J. W. Ochterski, 
 R. L. Martin, K. Morokuma, V. G. Zakrzewski, G. A. Voth, 
 P. Salvador, J. J. Dannenberg, S. Dapprich, A. D. Daniels, 
 O. Farkas, J. B. Foresman, J. V. Ortiz, J. Cioslowski, 
 and D. J. Fox, Gaussian, Inc., Wallingford CT, 2013.
 
 ******************************************
 Gaussian 09:  ES64L-G09RevE.01 30-Nov-2015
                25-Jan-2019 
 ******************************************
 %mem=1000MW
 %chk=tmp
 %NProcShared= 10
 Will use up to   10 processors via shared memory.
 ----------------------------------------------------------------------
 # b2plypd3/cc-pvtz opt=(internal, maxcyc=40) # int=ultrafine nosym scf
 =xqc freq
 ----------------------------------------------------------------------
 1/6=40,10=7,18=40,38=1/1,3;
 2/12=2,15=1,17=6,18=5,29=3,40=1/2;
 3/5=16,6=1,11=9,16=1,25=1,30=1,71=1,74=-60,75=-5/1,2,3;
 4//1;
 5/5=2,8=3,13=1,38=5/2,8;
 8/6=4,10=1/1;
 9/15=2,16=-3/6;
 10/5=1,31=1/2;
 6/7=2,8=2,9=2,10=2/1;
 7/12=2,29=1,30=1/1,2,3,16;
 1/6=40,10=7,18=40/3(2);
 2/15=1,29=3/2;
 99//99;
 2/15=1,29=3/2;
 3/5=16,6=1,11=9,16=1,25=1,30=1,71=1,74=-60,75=-5/1,2,3;
 4/5=5,16=3,69=1/1;
 5/5=2,8=3,13=1,38=5/2,8;
 8/6=4,10=1/1;
 9/15=2,16=-3/6;
 10/5=1,31=1/2;
 7/12=2,30=1/1,2,3,16;
 1/6=40,18=40/3(-8);
 2/15=1,29=3/2;
 6/7=2,8=2,9=2,10=2/1;
 99//99;
 ------
 geom 0
 ------
 Symbolic Z-matrix:
 Charge =  0 Multiplicity = 1
 n1
 h2                   n1   R1
 h3                   n1   R2       h2   A2
 h4                   n1   R3       h2   A3       h3   D3       0
       Variables:
  R1                    1.0152                   
  R2                    1.0153                   
  A2                  107.9115                   
  R3                    1.0153                   
  A3                  107.9101                   
  D3                  116.3485                   
 

 GradGradGradGradGradGradGradGradGradGradGradGradGradGradGradGradGradGrad
 Berny optimization.
 Initialization pass.
                       ----------------------------
                       !    Initial Parameters    !
                       ! (Angstroms and Degrees)  !
 ----------------------                            ----------------------
 !      Name          Value   Derivative information (Atomic Units)     !
 ------------------------------------------------------------------------
 !       R1          1.0152   estimate D2E/DX2                          !
 !       R2          1.0153   estimate D2E/DX2                          !
 !       A2        107.9115   estimate D2E/DX2                          !
 !       R3          1.0153   estimate D2E/DX2                          !
 !       A3        107.9101   estimate D2E/DX2                          !
 !       D3        116.3485   estimate D2E/DX2                          !
 ------------------------------------------------------------------------
 Trust Radius=3.00D-01 FncErr=1.00D-07 GrdErr=1.00D-07
 Number of steps in this run=     40 maximum allowed number of steps=    100.
 GradGradGradGradGradGradGradGradGradGradGradGradGradGradGradGradGradGrad

 ---------------------------------------------------------------------------------------------------
                            Z-MATRIX (ANGSTROMS AND DEGREES)
   CD    Cent   Atom    N1       Length/X        N2       Alpha/Y        N3        Beta/Z          J
 ---------------------------------------------------------------------------------------------------
      1      1  N 
      2      2  H        1   1.015200(     1)
      3      3  H        1   1.015300(     2)      2  107.912(     4)
      4      4  H        1   1.015300(     3)      2  107.910(     5)      3  116.349(     6)      0
 ---------------------------------------------------------------------------------------------------
                         Z-Matrix orientation:                         
 ---------------------------------------------------------------------
 Center     Atomic      Atomic             Coordinates (Angstroms)
 Number     Number       Type             X           Y           Z
 ---------------------------------------------------------------------
      1          7           0        0.000000    0.000000    0.000000
      2          1           0        0.000000    0.000000    1.015200
      3          1           0        0.966091    0.000000   -0.312253
      4          1           0       -0.428784   -0.865732   -0.312229
 ---------------------------------------------------------------------
                    Distance matrix (angstroms):
                    1          2          3          4
     1  N    0.000000
     2  H    1.015200   0.000000
     3  H    1.015300   1.641787   0.000000
     4  H    1.015300   1.641772   1.641696   0.000000
 Symmetry turned off by external request.
 Stoichiometry    H3N
 Framework group  C1[X(H3N)]
 Deg. of freedom     6
 Full point group                 C1      NOp   1
 Rotational constants (GHZ):    299.5470377    299.5140974    186.0445988
 Standard basis: CC-pVTZ (5D, 7F)
    72 basis functions,   103 primitive gaussians,    80 cartesian basis functions
     5 alpha electrons        5 beta electrons
       nuclear repulsion energy        11.9125925181 Hartrees.
 NAtoms=    4 NActive=    4 NUniq=    4 SFac= 1.00D+00 NAtFMM=   60 NAOKFM=F Big=F
 Integral buffers will be    131072 words long.
 Regular integral format.
 Two-electron integral symmetry is turned off.
 Nuclear repulsion after empirical dispersion term =       11.9120939263 Hartrees.
 One-electron integrals computed using PRISM.
 NBasis=    72 RedAO= T EigKep=  1.88D-03  NBF=    72
 NBsUse=    72 1.00D-06 EigRej= -1.00D+00 NBFU=    72
 ExpMin= 1.03D-01 ExpMax= 1.14D+04 ExpMxC= 3.89D+02 IAcc=3 IRadAn=         5 AccDes= 0.00D+00
 Harris functional with IExCor=  419 and IRadAn=       5 diagonalized for initial guess.
 HarFok:  IExCor=  419 AccDes= 0.00D+00 IRadAn=         5 IDoV= 1 UseB2=F ITyADJ=14
 ICtDFT=  3500011 ScaDFX=  1.000000  1.000000  1.000000  1.000000
 FoFCou: FMM=F IPFlag=           0 FMFlag=      100000 FMFlg1=           0
         NFxFlg=           0 DoJE=T BraDBF=F KetDBF=T FulRan=T
         wScrn=  0.000000 ICntrl=     500 IOpCl=  0 I1Cent=   200000004 NGrid=           0
         NMat0=    1 NMatS0=      1 NMatT0=    0 NMatD0=    1 NMtDS0=    0 NMtDT0=    0
 Symmetry not used in FoFCou.
 Keep R1 ints in memory in canonical form, NReq=5448514.
 Requested convergence on RMS density matrix=1.00D-08 within  64 cycles.
 Requested convergence on MAX density matrix=1.00D-06.
 Requested convergence on             energy=1.00D-06.
 No special actions if energy rises.
 Integral accuracy reduced to 1.0D-05 until final iterations.
 DSYEVD-2 returned Info=         145 IAlg= 4 N=    72 NDim=    72 NE2=    14515113 trying  DSYEV.
 Initial convergence to 1.0D-05 achieved.  Increase integral accuracy.
 SCF Done:  E(RB2PLYPD3) =  -56.4575738172     A.U. after   10 cycles
            NFock= 10  Conv=0.42D-08     -V/T= 2.0044
 QCSCF skips out because SCF is already converged.
 DoSCS=T DFT=T ScalE2(SS,OS)=  0.270000  0.270000
 ExpMin= 1.03D-01 ExpMax= 1.14D+04 ExpMxC= 3.89D+02 IAcc=3 IRadAn=         5 AccDes= 0.00D+00
 HarFok:  IExCor=  205 AccDes= 0.00D+00 IRadAn=         5 IDoV=-2 UseB2=F ITyADJ=14
 ICtDFT= 12500011 ScaDFX=  1.000000  1.000000  1.000000  1.000000
 Range of M.O.s used for correlation:     2    72
 NBasis=    72 NAE=     5 NBE=     5 NFC=     1 NFV=     0
 NROrb=     71 NOA=     4 NOB=     4 NVA=    67 NVB=    67
 DoSCS=T DFT=T ScalE2(SS,OS)=  0.270000  0.270000
 Fully direct method using O(ONN) memory.
 JobTyp=1 Pass  1:  I=   2 to   5 NPSUse= 10 ParTrn=T ParDer=T DoDerP=T.
 Spin components of T(2) and E(2):
     alpha-alpha T2 =       0.1126567935D-01 E2=     -0.8455392462D-02
     alpha-beta  T2 =       0.7282715742D-01 E2=     -0.5872651092D-01
     beta-beta   T2 =       0.1126567935D-01 E2=     -0.8455392462D-02
 E2(B2PLYPD3) =    -0.7563729585D-01 E(B2PLYPD3) =    -0.56533211113064D+02
          IDoAtm=1111
          Differentiating once with respect to electric field.
                with respect to dipole field.
          Differentiating once with respect to nuclear coordinates.
 Keep R1 ints in memory in canonical form, NReq=5434142.
          There are     1 degrees of freedom in the 1st order CPHF.  IDoFFX=0 NUNeed=     1.
 LinEq1:  Iter=  0 NonCon=     1 RMS=1.32D-03 Max=7.18D-03 NDo=     1
 AX will form     1 AO Fock derivatives at one time.
 LinEq1:  Iter=  1 NonCon=     1 RMS=6.94D-04 Max=6.90D-03 NDo=     1
 LinEq1:  Iter=  2 NonCon=     1 RMS=1.77D-04 Max=1.34D-03 NDo=     1
 LinEq1:  Iter=  3 NonCon=     1 RMS=2.54D-05 Max=1.75D-04 NDo=     1
 LinEq1:  Iter=  4 NonCon=     1 RMS=6.75D-06 Max=6.78D-05 NDo=     1
 LinEq1:  Iter=  5 NonCon=     1 RMS=7.49D-07 Max=5.53D-06 NDo=     1
 LinEq1:  Iter=  6 NonCon=     1 RMS=5.46D-08 Max=3.39D-07 NDo=     1
 LinEq1:  Iter=  7 NonCon=     1 RMS=3.80D-09 Max=2.44D-08 NDo=     1
 LinEq1:  Iter=  8 NonCon=     1 RMS=2.26D-10 Max=1.99D-09 NDo=     1
 LinEq1:  Iter=  9 NonCon=     0 RMS=2.19D-11 Max=1.26D-10 NDo=     1
 Linear equations converged to 1.000D-10 1.000D-09 after     9 iterations.
 End of Minotr F.D. properties file   721 does not exist.
 End of Minotr F.D. properties file   722 does not exist.
 End of Minotr F.D. properties file   788 does not exist.

 **********************************************************************

            Population analysis using the SCF density.

 **********************************************************************

 Alpha  occ. eigenvalues --  -14.80849  -0.96590  -0.52825  -0.52819  -0.32859
 Alpha virt. eigenvalues --    0.07441   0.15490   0.15490   0.38554   0.38558
 Alpha virt. eigenvalues --    0.50044   0.52118   0.60241   0.60241   0.64979
 Alpha virt. eigenvalues --    0.64983   0.67935   1.00348   1.04017   1.09862
 Alpha virt. eigenvalues --    1.09865   1.31401   1.31408   1.43092   1.61058
 Alpha virt. eigenvalues --    1.61063   1.65325   1.65326   1.74746   2.41336
 Alpha virt. eigenvalues --    2.41340   2.46007   3.16837   3.27701   3.28456
 Alpha virt. eigenvalues --    3.28467   3.33702   3.33708   3.34188   3.50949
 Alpha virt. eigenvalues --    3.60644   3.60655   3.62504   3.62510   3.77877
 Alpha virt. eigenvalues --    3.77884   3.82219   3.93659   4.05228   4.05237
 Alpha virt. eigenvalues --    4.20244   4.20249   4.34694   4.34708   4.37407
 Alpha virt. eigenvalues --    4.44274   4.75897   4.99709   4.99718   5.14178
 Alpha virt. eigenvalues --    5.50753   5.50754   5.67950   5.89400   5.89428
 Alpha virt. eigenvalues --    6.02311   6.09093   6.09110   6.15581   6.96099
 Alpha virt. eigenvalues --    6.96103  13.54753
          Condensed to atoms (all electrons):
               1          2          3          4
     1  N    6.303619   0.394248   0.394215   0.394214
     2  H    0.394248   0.531740  -0.044048  -0.044049
     3  H    0.394215  -0.044048   0.531793  -0.044053
     4  H    0.394214  -0.044049  -0.044053   0.531797
 Mulliken charges:
               1
     1  N   -0.486295
     2  H    0.162110
     3  H    0.162094
     4  H    0.162092
 Sum of Mulliken charges =  -0.00000
 Mulliken charges with hydrogens summed into heavy atoms:
               1
     1  N   -0.000000
 Electronic spatial extent (au):  <R**2>=             26.6255
 Charge=             -0.0000 electrons
 Dipole moment (field-independent basis, Debye):
    X=              0.7611    Y=             -1.2263    Z=              0.5537  Tot=              1.5458
 Quadrupole moment (field-independent basis, Debye-Ang):
   XX=             -6.7522   YY=             -7.7492   ZZ=             -6.4579
   XY=              1.0066   XZ=             -0.4549   YZ=              0.7328
 Traceless Quadrupole moment (field-independent basis, Debye-Ang):
   XX=              0.2342   YY=             -0.7628   ZZ=              0.5285
   XY=              1.0066   XZ=             -0.4549   YZ=              0.7328
 Octapole moment (field-independent basis, Debye-Ang**2):
  XXX=              0.3375  YYY=              0.4780  ZZZ=              0.8156  XYY=             -0.7865
  XXY=              0.2455  XXZ=             -0.7250  XZZ=             -0.2141  YZZ=              0.3449
  YYZ=             -0.5723  XYZ=             -0.1541
 Hexadecapole moment (field-independent basis, Debye-Ang**3):
 XXXX=             -9.6946 YYYY=            -10.0062 ZZZZ=             -9.4459 XXXY=             -0.0276
 XXXZ=             -0.4197 YYYX=              0.3422 YYYZ=              0.2491 ZZZX=              0.0360
 ZZZY=             -0.0580 XXYY=             -3.4713 XXZZ=             -3.6108 YYZZ=             -3.6233
 XXYZ=              0.0470 YYXZ=              0.2359 ZZXY=              0.0126
 N-N= 1.191209392631D+01 E-N=-1.558643248843D+02  KE= 5.620930232877D+01
 Calling FoFJK, ICntrl=  10002127 FMM=F ISym2X=0 I1Cent= 0 IOpClX= 0 NMat=1 NMatS=1 NMatT=0.
 -------------------------------------------------------------------
 Center     Atomic                   Forces (Hartrees/Bohr)
 Number     Number              X              Y              Z
 -------------------------------------------------------------------
      1        7          -0.000401328    0.000643187   -0.000396632
      2        1           0.001070468   -0.001721675   -0.004420957
      3        1          -0.003950233   -0.001704794    0.002409855
      4        1           0.003281093    0.002783281    0.002407733
 -------------------------------------------------------------------
 Cartesian Forces:  Max     0.004420957 RMS     0.002466686
 -----------------------------------------------------------------------------------------------
                       Internal Coordinate Forces (Hartree/Bohr or radian)
  Cent   Atom   N1       Length/X         N2         Alpha/Y        N3         Beta/Z          J
 -----------------------------------------------------------------------------------------------
      1  N 
      2  H        1  -0.004421(     1)
      3  H        1  -0.004500(     2)      2  -0.002069(     4)
      4  H        1  -0.004499(     3)      2  -0.002065(     5)      3  -0.003113(     6)     0
 -----------------------------------------------------------------------------------------------
 Internal  Forces:  Max     0.004499921 RMS     0.003611781

 GradGradGradGradGradGradGradGradGradGradGradGradGradGradGradGradGradGrad
 Berny optimization.
 Search for a local minimum.
 Step number   1 out of a maximum of   40
 All quantities printed in internal units (Hartrees-Bohrs-Radians)
 Second derivative matrix not updated -- first step.
 The second derivative matrix:
                          R1        R2        A2        R3        A3
           R1           0.45113
           R2           0.00000   0.45096
           A2           0.00000  -0.00000   0.19171
           R3           0.00000  -0.00000  -0.00000   0.45096
           A3           0.00000  -0.00000   0.03171  -0.00000   0.19171
           D3           0.00000   0.00000  -0.06031  -0.00000  -0.06031
                          D3
           D3           0.11671
 ITU=  0
     Eigenvalues ---    0.06947   0.16000   0.27067   0.45096   0.45096
     Eigenvalues ---    0.45113
 RFO step:  Lambda=-3.82330181D-04 EMin= 6.94658104D-02
 Linear search not attempted -- first point.
 Variable       Old X    -DE/DX   Delta X   Delta X   Delta X     New X
                                 (Linear)    (Quad)   (Total)
    R1        1.91845  -0.00442   0.00000  -0.00979  -0.00979   1.90866
    R2        1.91864  -0.00450   0.00000  -0.00997  -0.00997   1.90867
    A2        1.88341  -0.00207   0.00000  -0.02271  -0.02271   1.86070
    R3        1.91864  -0.00450   0.00000  -0.00997  -0.00997   1.90867
    A3        1.88339  -0.00206   0.00000  -0.02269  -0.02269   1.86070
    D3        2.03066  -0.00311   0.00000  -0.04996  -0.04996   1.98070
         Item               Value     Threshold  Converged?
 Maximum Force            0.004500     0.000450     NO 
 RMS     Force            0.003612     0.000300     NO 
 Maximum Displacement     0.049962     0.001800     NO 
 RMS     Displacement     0.025236     0.001200     NO 
 Predicted change in Energy=-1.918984D-04
 GradGradGradGradGradGradGradGradGradGradGradGradGradGradGradGradGradGrad

 ---------------------------------------------------------------------------------------------------
                            Z-MATRIX (ANGSTROMS AND DEGREES)
   CD    Cent   Atom    N1       Length/X        N2       Alpha/Y        N3        Beta/Z          J
 ---------------------------------------------------------------------------------------------------
      1      1  N 
      2      2  H        1   1.010019(     1)
      3      3  H        1   1.010024(     2)      2  106.610(     4)
      4      4  H        1   1.010025(     3)      2  106.610(     5)      3  113.486(     6)      0
 ---------------------------------------------------------------------------------------------------
                         Z-Matrix orientation:                         
 ---------------------------------------------------------------------
 Center     Atomic      Atomic             Coordinates (Angstroms)
 Number     Number       Type             X           Y           Z
 ---------------------------------------------------------------------
      1          7           0        0.000000    0.000000    0.000000
      2          1           0        0.000000    0.000000    1.010019
      3          1           0        0.967877    0.000000   -0.288727
      4          1           0       -0.385722   -0.887697   -0.288726
 ---------------------------------------------------------------------
                    Distance matrix (angstroms):
                    1          2          3          4
     1  N    0.000000
     2  H    1.010019   0.000000
     3  H    1.010024   1.619730   0.000000
     4  H    1.010025   1.619730   1.618714   0.000000
 Symmetry turned off by external request.
 Stoichiometry    H3N
 Framework group  C1[X(H3N)]
 Deg. of freedom     6
 Full point group                 C1      NOp   1
 Rotational constants (GHZ):    300.2104267    299.8164949    191.2177714
 Standard basis: CC-pVTZ (5D, 7F)
    72 basis functions,   103 primitive gaussians,    80 cartesian basis functions
     5 alpha electrons        5 beta electrons
       nuclear repulsion energy        11.9827757553 Hartrees.
 NAtoms=    4 NActive=    4 NUniq=    4 SFac= 1.00D+00 NAtFMM=   60 NAOKFM=F Big=F
 Integral buffers will be    131072 words long.
 Regular integral format.
 Two-electron integral symmetry is turned off.
 Nuclear repulsion after empirical dispersion term =       11.9822770206 Hartrees.
 One-electron integrals computed using PRISM.
 NBasis=    72 RedAO= T EigKep=  1.81D-03  NBF=    72
 NBsUse=    72 1.00D-06 EigRej= -1.00D+00 NBFU=    72
 Initial guess from the checkpoint file:  "tmp.chk"
 B after Tr=     0.005311   -0.008094    0.003808
         Rot=    0.999865    0.009011    0.005754   -0.012489 Ang=   1.88 deg.
 ExpMin= 1.03D-01 ExpMax= 1.14D+04 ExpMxC= 3.89D+02 IAcc=2 IRadAn=         4 AccDes= 0.00D+00
 Harris functional with IExCor=  419 and IRadAn=       4 diagonalized for initial guess.
 HarFok:  IExCor=  419 AccDes= 0.00D+00 IRadAn=         4 IDoV= 1 UseB2=F ITyADJ=14
 ICtDFT=  3500011 ScaDFX=  1.000000  1.000000  1.000000  1.000000
 FoFCou: FMM=F IPFlag=           0 FMFlag=      100000 FMFlg1=           0
         NFxFlg=           0 DoJE=T BraDBF=F KetDBF=T FulRan=T
         wScrn=  0.000000 ICntrl=     500 IOpCl=  0 I1Cent=   200000004 NGrid=           0
         NMat0=    1 NMatS0=      1 NMatT0=    0 NMatD0=    1 NMtDS0=    0 NMtDT0=    0
 Symmetry not used in FoFCou.
 Keep R1 ints in memory in canonical form, NReq=5448514.
 Requested convergence on RMS density matrix=1.00D-08 within  64 cycles.
 Requested convergence on MAX density matrix=1.00D-06.
 Requested convergence on             energy=1.00D-06.
 No special actions if energy rises.
 Integral accuracy reduced to 1.0D-05 until final iterations.
 Initial convergence to 1.0D-05 achieved.  Increase integral accuracy.
 SCF Done:  E(RB2PLYPD3) =  -56.4578318617     A.U. after    9 cycles
            NFock=  9  Conv=0.76D-09     -V/T= 2.0038
 QCSCF skips out because SCF is already converged.
 DoSCS=T DFT=T ScalE2(SS,OS)=  0.270000  0.270000
 ExpMin= 1.03D-01 ExpMax= 1.14D+04 ExpMxC= 3.89D+02 IAcc=3 IRadAn=         5 AccDes= 0.00D+00
 HarFok:  IExCor=  205 AccDes= 0.00D+00 IRadAn=         5 IDoV=-2 UseB2=F ITyADJ=14
 ICtDFT= 12500011 ScaDFX=  1.000000  1.000000  1.000000  1.000000
 Range of M.O.s used for correlation:     2    72
 NBasis=    72 NAE=     5 NBE=     5 NFC=     1 NFV=     0
 NROrb=     71 NOA=     4 NOB=     4 NVA=    67 NVB=    67
 DoSCS=T DFT=T ScalE2(SS,OS)=  0.270000  0.270000
 Fully direct method using O(ONN) memory.
 JobTyp=1 Pass  1:  I=   2 to   5 NPSUse= 10 ParTrn=T ParDer=T DoDerP=T.
 Spin components of T(2) and E(2):
     alpha-alpha T2 =       0.1121948272D-01 E2=     -0.8450714935D-02
     alpha-beta  T2 =       0.7242420295D-01 E2=     -0.5866061118D-01
     beta-beta   T2 =       0.1121948272D-01 E2=     -0.8450714935D-02
 E2(B2PLYPD3) =    -0.7556204105D-01 E(B2PLYPD3) =    -0.56533393902750D+02
          IDoAtm=1111
          Differentiating once with respect to electric field.
                with respect to dipole field.
          Differentiating once with respect to nuclear coordinates.
 Keep R1 ints in memory in canonical form, NReq=5434142.
          There are     1 degrees of freedom in the 1st order CPHF.  IDoFFX=0 NUNeed=     1.
 LinEq1:  Iter=  0 NonCon=     1 RMS=1.32D-03 Max=7.10D-03 NDo=     1
 AX will form     1 AO Fock derivatives at one time.
 LinEq1:  Iter=  1 NonCon=     1 RMS=6.84D-04 Max=7.15D-03 NDo=     1
 LinEq1:  Iter=  2 NonCon=     1 RMS=1.76D-04 Max=1.34D-03 NDo=     1
 LinEq1:  Iter=  3 NonCon=     1 RMS=2.58D-05 Max=1.80D-04 NDo=     1
 LinEq1:  Iter=  4 NonCon=     1 RMS=6.69D-06 Max=6.55D-05 NDo=     1
 LinEq1:  Iter=  5 NonCon=     1 RMS=7.22D-07 Max=5.29D-06 NDo=     1
 LinEq1:  Iter=  6 NonCon=     1 RMS=5.31D-08 Max=3.26D-07 NDo=     1
 LinEq1:  Iter=  7 NonCon=     1 RMS=3.71D-09 Max=2.21D-08 NDo=     1
 LinEq1:  Iter=  8 NonCon=     1 RMS=2.48D-10 Max=1.96D-09 NDo=     1
 LinEq1:  Iter=  9 NonCon=     0 RMS=5.15D-11 Max=3.53D-10 NDo=     1
 Linear equations converged to 1.000D-10 1.000D-09 after     9 iterations.
 End of Minotr F.D. properties file   721 does not exist.
 End of Minotr F.D. properties file   722 does not exist.
 End of Minotr F.D. properties file   788 does not exist.
 Calling FoFJK, ICntrl=  10002127 FMM=F ISym2X=0 I1Cent= 0 IOpClX= 0 NMat=1 NMatS=1 NMatT=0.
 -------------------------------------------------------------------
 Center     Atomic                   Forces (Hartrees/Bohr)
 Number     Number              X              Y              Z
 -------------------------------------------------------------------
      1        7          -0.001017624    0.001550678   -0.000906631
      2        1           0.000113197   -0.000172485    0.001411009
      3        1           0.001433853   -0.000045471   -0.000252313
      4        1          -0.000529426   -0.001332722   -0.000252065
 -------------------------------------------------------------------
 Cartesian Forces:  Max     0.001550678 RMS     0.000937074
 -----------------------------------------------------------------------------------------------
                       Internal Coordinate Forces (Hartree/Bohr or radian)
  Cent   Atom   N1       Length/X         N2         Alpha/Y        N3         Beta/Z          J
 -----------------------------------------------------------------------------------------------
      1  N 
      2  H        1   0.001411(     1)
      3  H        1   0.001446(     2)      2  -0.000321(     4)
      4  H        1   0.001446(     3)      2  -0.000321(     5)      3  -0.000083(     6)     0
 -----------------------------------------------------------------------------------------------
 Internal  Forces:  Max     0.001446146 RMS     0.001031571

 GradGradGradGradGradGradGradGradGradGradGradGradGradGradGradGradGradGrad
 Berny optimization.
 Search for a local minimum.
 Step number   2 out of a maximum of   40
 All quantities printed in internal units (Hartrees-Bohrs-Radians)
 Update second derivatives using D2CorN and points    1    2
 DE= -1.83D-04 DEPred=-1.92D-04 R= 9.53D-01
 TightC=F SS=  1.41D+00  RLast= 6.18D-02 DXNew= 5.0454D-01 1.8545D-01
 Trust test= 9.53D-01 RLast= 6.18D-02 DXMaxT set to 3.00D-01
 The second derivative matrix:
                          R1        R2        A2        R3        A3
           R1           0.45475
           R2           0.00370   0.45475
           A2           0.00380   0.00390   0.18985
           R3           0.00370   0.00378   0.00390   0.45475
           A3           0.00380   0.00390   0.02986   0.00389   0.18986
           D3           0.00917   0.00940  -0.06254   0.00939  -0.06254
                          D3
           D3           0.11587
 ITU=  1  0
     Eigenvalues ---    0.06436   0.16000   0.27035   0.45096   0.45107
     Eigenvalues ---    0.46309
 RFO step:  Lambda=-1.41684455D-05 EMin= 6.43554421D-02
 Quartic linear search produced a step of -0.05605.
 Variable       Old X    -DE/DX   Delta X   Delta X   Delta X     New X
                                 (Linear)    (Quad)   (Total)
    R1        1.90866   0.00141   0.00055   0.00256   0.00310   1.91176
    R2        1.90867   0.00145   0.00056   0.00262   0.00318   1.91185
    A2        1.86070  -0.00032   0.00127  -0.00420  -0.00293   1.85777
    R3        1.90867   0.00145   0.00056   0.00262   0.00318   1.91185
    A3        1.86070  -0.00032   0.00127  -0.00420  -0.00293   1.85777
    D3        1.98070  -0.00008   0.00280  -0.00748  -0.00468   1.97603
         Item               Value     Threshold  Converged?
 Maximum Force            0.001446     0.000450     NO 
 RMS     Force            0.001032     0.000300     NO 
 Maximum Displacement     0.004676     0.001800     NO 
 RMS     Displacement     0.003389     0.001200     NO 
 Predicted change in Energy=-8.132653D-06
 GradGradGradGradGradGradGradGradGradGradGradGradGradGradGradGradGradGrad

 ---------------------------------------------------------------------------------------------------
                            Z-MATRIX (ANGSTROMS AND DEGREES)
   CD    Cent   Atom    N1       Length/X        N2       Alpha/Y        N3        Beta/Z          J
 ---------------------------------------------------------------------------------------------------
      1      1  N 
      2      2  H        1   1.011661(     1)
      3      3  H        1   1.011709(     2)      2  106.443(     4)
      4      4  H        1   1.011709(     3)      2  106.442(     5)      3  113.218(     6)      0
 ---------------------------------------------------------------------------------------------------
                         Z-Matrix orientation:                         
 ---------------------------------------------------------------------
 Center     Atomic      Atomic             Coordinates (Angstroms)
 Number     Number       Type             X           Y           Z
 ---------------------------------------------------------------------
      1          7           0        0.000000    0.000000    0.000000
      2          1           0        0.000000    0.000000    1.011661
      3          1           0        0.970334    0.000000   -0.286368
      4          1           0       -0.382536   -0.891749   -0.286366
 ---------------------------------------------------------------------
                    Distance matrix (angstroms):
                    1          2          3          4
     1  N    0.000000
     2  H    1.011661   0.000000
     3  H    1.011709   1.620626   0.000000
     4  H    1.011709   1.620624   1.620331   0.000000
 Symmetry turned off by external request.
 Stoichiometry    H3N
 Framework group  C1[X(H3N)]
 Deg. of freedom     6
 Full point group                 C1      NOp   1
 Rotational constants (GHZ):    298.7926789    298.6794889    190.9499581
 Standard basis: CC-pVTZ (5D, 7F)
    72 basis functions,   103 primitive gaussians,    80 cartesian basis functions
     5 alpha electrons        5 beta electrons
       nuclear repulsion energy        11.9639228252 Hartrees.
 NAtoms=    4 NActive=    4 NUniq=    4 SFac= 1.00D+00 NAtFMM=   60 NAOKFM=F Big=F
 Integral buffers will be    131072 words long.
 Regular integral format.
 Two-electron integral symmetry is turned off.
 Nuclear repulsion after empirical dispersion term =       11.9634240922 Hartrees.
 One-electron integrals computed using PRISM.
 NBasis=    72 RedAO= T EigKep=  1.81D-03  NBF=    72
 NBsUse=    72 1.00D-06 EigRej= -1.00D+00 NBFU=    72
 Initial guess from the checkpoint file:  "tmp.chk"
 B after Tr=     0.000785   -0.001191    0.000710
         Rot=    0.999999    0.001026    0.000675   -0.001169 Ang=   0.19 deg.
 Keep R1 ints in memory in canonical form, NReq=5448514.
 Requested convergence on RMS density matrix=1.00D-08 within  64 cycles.
 Requested convergence on MAX density matrix=1.00D-06.
 Requested convergence on             energy=1.00D-06.
 No special actions if energy rises.
 SCF Done:  E(RB2PLYPD3) =  -56.4577890128     A.U. after    7 cycles
            NFock=  7  Conv=0.59D-08     -V/T= 2.0040
 QCSCF skips out because SCF is already converged.
 DoSCS=T DFT=T ScalE2(SS,OS)=  0.270000  0.270000
 ExpMin= 1.03D-01 ExpMax= 1.14D+04 ExpMxC= 3.89D+02 IAcc=3 IRadAn=         5 AccDes= 0.00D+00
 HarFok:  IExCor=  205 AccDes= 0.00D+00 IRadAn=         5 IDoV=-2 UseB2=F ITyADJ=14
 ICtDFT= 12500011 ScaDFX=  1.000000  1.000000  1.000000  1.000000
 Range of M.O.s used for correlation:     2    72
 NBasis=    72 NAE=     5 NBE=     5 NFC=     1 NFV=     0
 NROrb=     71 NOA=     4 NOB=     4 NVA=    67 NVB=    67
 DoSCS=T DFT=T ScalE2(SS,OS)=  0.270000  0.270000
 Fully direct method using O(ONN) memory.
 JobTyp=1 Pass  1:  I=   2 to   5 NPSUse= 10 ParTrn=T ParDer=T DoDerP=T.
 Spin components of T(2) and E(2):
     alpha-alpha T2 =       0.1124379738D-01 E2=     -0.8455125595D-02
     alpha-beta  T2 =       0.7262265221D-01 E2=     -0.5870393689D-01
     beta-beta   T2 =       0.1124379738D-01 E2=     -0.8455125595D-02
 E2(B2PLYPD3) =    -0.7561418807D-01 E(B2PLYPD3) =    -0.56533403200902D+02
          IDoAtm=1111
          Differentiating once with respect to electric field.
                with respect to dipole field.
          Differentiating once with respect to nuclear coordinates.
 Keep R1 ints in memory in canonical form, NReq=5434142.
          There are     1 degrees of freedom in the 1st order CPHF.  IDoFFX=0 NUNeed=     1.
 LinEq1:  Iter=  0 NonCon=     1 RMS=1.33D-03 Max=7.13D-03 NDo=     1
 AX will form     1 AO Fock derivatives at one time.
 LinEq1:  Iter=  1 NonCon=     1 RMS=6.88D-04 Max=7.16D-03 NDo=     1
 LinEq1:  Iter=  2 NonCon=     1 RMS=1.78D-04 Max=1.35D-03 NDo=     1
 LinEq1:  Iter=  3 NonCon=     1 RMS=2.61D-05 Max=1.83D-04 NDo=     1
 LinEq1:  Iter=  4 NonCon=     1 RMS=6.77D-06 Max=6.58D-05 NDo=     1
 LinEq1:  Iter=  5 NonCon=     1 RMS=7.27D-07 Max=5.29D-06 NDo=     1
 LinEq1:  Iter=  6 NonCon=     1 RMS=5.33D-08 Max=3.28D-07 NDo=     1
 LinEq1:  Iter=  7 NonCon=     1 RMS=3.71D-09 Max=2.15D-08 NDo=     1
 LinEq1:  Iter=  8 NonCon=     1 RMS=2.20D-10 Max=1.96D-09 NDo=     1
 LinEq1:  Iter=  9 NonCon=     0 RMS=2.63D-11 Max=1.70D-10 NDo=     1
 Linear equations converged to 1.000D-10 1.000D-09 after     9 iterations.
 End of Minotr F.D. properties file   721 does not exist.
 End of Minotr F.D. properties file   722 does not exist.
 End of Minotr F.D. properties file   788 does not exist.
 Calling FoFJK, ICntrl=  10002127 FMM=F ISym2X=0 I1Cent= 0 IOpClX= 0 NMat=1 NMatS=1 NMatT=0.
 -------------------------------------------------------------------
 Center     Atomic                   Forces (Hartrees/Bohr)
 Number     Number              X              Y              Z
 -------------------------------------------------------------------
      1        7          -0.000203784    0.000308895   -0.000238696
      2        1           0.000059425   -0.000089925    0.000175417
      3        1           0.000163048   -0.000049535    0.000031636
      4        1          -0.000018688   -0.000169435    0.000031644
 -------------------------------------------------------------------
 Cartesian Forces:  Max     0.000308895 RMS     0.000157164
 -----------------------------------------------------------------------------------------------
                       Internal Coordinate Forces (Hartree/Bohr or radian)
  Cent   Atom   N1       Length/X         N2         Alpha/Y        N3         Beta/Z          J
 -----------------------------------------------------------------------------------------------
      1  N 
      2  H        1   0.000175(     1)
      3  H        1   0.000147(     2)      2  -0.000146(     4)
      4  H        1   0.000147(     3)      2  -0.000146(     5)      3  -0.000091(     6)     0
 -----------------------------------------------------------------------------------------------
 Internal  Forces:  Max     0.000175417 RMS     0.000144517

 GradGradGradGradGradGradGradGradGradGradGradGradGradGradGradGradGradGrad
 Berny optimization.
 Search for a local minimum.
 Step number   3 out of a maximum of   40
 All quantities printed in internal units (Hartrees-Bohrs-Radians)
 Update second derivatives using D2CorN and points    1    2    3
 DE= -9.30D-06 DEPred=-8.13D-06 R= 1.14D+00
 TightC=F SS=  1.41D+00  RLast= 8.30D-03 DXNew= 5.0454D-01 2.4907D-02
 Trust test= 1.14D+00 RLast= 8.30D-03 DXMaxT set to 3.00D-01
 The second derivative matrix:
                          R1        R2        A2        R3        A3
           R1           0.45094
           R2           0.00046   0.45211
           A2           0.01035   0.00985   0.18373
           R3           0.00046   0.00115   0.00985   0.45211
           A3           0.01034   0.00985   0.02373   0.00985   0.18373
           D3           0.01806   0.01726  -0.06916   0.01725  -0.06916
                          D3
           D3           0.11125
 ITU=  1  1  0
     Eigenvalues ---    0.04667   0.16000   0.26824   0.45096   0.45099
     Eigenvalues ---    0.45702
 RFO step:  Lambda=-5.59973194D-07 EMin= 4.66663165D-02
 Quartic linear search produced a step of  0.21266.
 Variable       Old X    -DE/DX   Delta X   Delta X   Delta X     New X
                                 (Linear)    (Quad)   (Total)
    R1        1.91176   0.00018   0.00066  -0.00003   0.00063   1.91239
    R2        1.91185   0.00015   0.00068  -0.00013   0.00055   1.91240
    A2        1.85777  -0.00015  -0.00062  -0.00133  -0.00196   1.85582
    R3        1.91185   0.00015   0.00068  -0.00013   0.00055   1.91240
    A3        1.85777  -0.00015  -0.00062  -0.00133  -0.00196   1.85581
    D3        1.97603  -0.00009  -0.00099  -0.00246  -0.00345   1.97258
         Item               Value     Threshold  Converged?
 Maximum Force            0.000175     0.000450     YES
 RMS     Force            0.000145     0.000300     YES
 Maximum Displacement     0.003451     0.001800     NO 
 RMS     Displacement     0.001852     0.001200     NO 
 Predicted change in Energy=-5.820972D-07
 GradGradGradGradGradGradGradGradGradGradGradGradGradGradGradGradGradGrad

 ---------------------------------------------------------------------------------------------------
                            Z-MATRIX (ANGSTROMS AND DEGREES)
   CD    Cent   Atom    N1       Length/X        N2       Alpha/Y        N3        Beta/Z          J
 ---------------------------------------------------------------------------------------------------
      1      1  N 
      2      2  H        1   1.011994(     1)
      3      3  H        1   1.011998(     2)      2  106.330(     4)
      4      4  H        1   1.011998(     3)      2  106.330(     5)      3  113.020(     6)      0
 ---------------------------------------------------------------------------------------------------
                         Z-Matrix orientation:                         
 ---------------------------------------------------------------------
 Center     Atomic      Atomic             Coordinates (Angstroms)
 Number     Number       Type             X           Y           Z
 ---------------------------------------------------------------------
      1          7           0        0.000000    0.000000    0.000000
      2          1           0        0.000000    0.000000    1.011994
      3          1           0        0.971170    0.000000   -0.284549
      4          1           0       -0.379783   -0.893833   -0.284547
 ---------------------------------------------------------------------
                    Distance matrix (angstroms):
                    1          2          3          4
     1  N    0.000000
     2  H    1.011994   0.000000
     3  H    1.011998   1.619936   0.000000
     4  H    1.011998   1.619935   1.619880   0.000000
 Symmetry turned off by external request.
 Stoichiometry    H3N
 Framework group  C1[X(H3N)]
 Deg. of freedom     6
 Full point group                 C1      NOp   1
 Rotational constants (GHZ):    298.3641841    298.3427344    191.0937355
 Standard basis: CC-pVTZ (5D, 7F)
    72 basis functions,   103 primitive gaussians,    80 cartesian basis functions
     5 alpha electrons        5 beta electrons
       nuclear repulsion energy        11.9609968979 Hartrees.
 NAtoms=    4 NActive=    4 NUniq=    4 SFac= 1.00D+00 NAtFMM=   60 NAOKFM=F Big=F
 Integral buffers will be    131072 words long.
 Regular integral format.
 Two-electron integral symmetry is turned off.
 Nuclear repulsion after empirical dispersion term =       11.9604981594 Hartrees.
 One-electron integrals computed using PRISM.
 NBasis=    72 RedAO= T EigKep=  1.81D-03  NBF=    72
 NBsUse=    72 1.00D-06 EigRej= -1.00D+00 NBFU=    72
 Initial guess from the checkpoint file:  "tmp.chk"
 B after Tr=     0.000465   -0.000703    0.000409
         Rot=    0.999999    0.000705    0.000466   -0.000863 Ang=   0.14 deg.
 Keep R1 ints in memory in canonical form, NReq=5448514.
 Requested convergence on RMS density matrix=1.00D-08 within  64 cycles.
 Requested convergence on MAX density matrix=1.00D-06.
 Requested convergence on             energy=1.00D-06.
 No special actions if energy rises.
 SCF Done:  E(RB2PLYPD3) =  -56.4577759431     A.U. after    7 cycles
            NFock=  7  Conv=0.34D-08     -V/T= 2.0040
 QCSCF skips out because SCF is already converged.
 DoSCS=T DFT=T ScalE2(SS,OS)=  0.270000  0.270000
 ExpMin= 1.03D-01 ExpMax= 1.14D+04 ExpMxC= 3.89D+02 IAcc=3 IRadAn=         5 AccDes= 0.00D+00
 HarFok:  IExCor=  205 AccDes= 0.00D+00 IRadAn=         5 IDoV=-2 UseB2=F ITyADJ=14
 ICtDFT= 12500011 ScaDFX=  1.000000  1.000000  1.000000  1.000000
 Range of M.O.s used for correlation:     2    72
 NBasis=    72 NAE=     5 NBE=     5 NFC=     1 NFV=     0
 NROrb=     71 NOA=     4 NOB=     4 NVA=    67 NVB=    67
 DoSCS=T DFT=T ScalE2(SS,OS)=  0.270000  0.270000
 Fully direct method using O(ONN) memory.
 JobTyp=1 Pass  1:  I=   2 to   5 NPSUse= 10 ParTrn=T ParDer=T DoDerP=T.
 Spin components of T(2) and E(2):
     alpha-alpha T2 =       0.1124962060D-01 E2=     -0.8456387971D-02
     alpha-beta  T2 =       0.7266866951D-01 E2=     -0.5871500589D-01
     beta-beta   T2 =       0.1124962060D-01 E2=     -0.8456387971D-02
 E2(B2PLYPD3) =    -0.7562778183D-01 E(B2PLYPD3) =    -0.56533403724967D+02
          IDoAtm=1111
          Differentiating once with respect to electric field.
                with respect to dipole field.
          Differentiating once with respect to nuclear coordinates.
 Keep R1 ints in memory in canonical form, NReq=5434142.
          There are     1 degrees of freedom in the 1st order CPHF.  IDoFFX=0 NUNeed=     1.
 LinEq1:  Iter=  0 NonCon=     1 RMS=1.33D-03 Max=7.14D-03 NDo=     1
 AX will form     1 AO Fock derivatives at one time.
 LinEq1:  Iter=  1 NonCon=     1 RMS=6.89D-04 Max=7.16D-03 NDo=     1
 LinEq1:  Iter=  2 NonCon=     1 RMS=1.79D-04 Max=1.36D-03 NDo=     1
 LinEq1:  Iter=  3 NonCon=     1 RMS=2.62D-05 Max=1.84D-04 NDo=     1
 LinEq1:  Iter=  4 NonCon=     1 RMS=6.79D-06 Max=6.59D-05 NDo=     1
 LinEq1:  Iter=  5 NonCon=     1 RMS=7.28D-07 Max=5.28D-06 NDo=     1
 LinEq1:  Iter=  6 NonCon=     1 RMS=5.33D-08 Max=3.29D-07 NDo=     1
 LinEq1:  Iter=  7 NonCon=     1 RMS=3.71D-09 Max=2.14D-08 NDo=     1
 LinEq1:  Iter=  8 NonCon=     1 RMS=2.14D-10 Max=1.96D-09 NDo=     1
 LinEq1:  Iter=  9 NonCon=     0 RMS=1.36D-11 Max=1.10D-10 NDo=     1
 Linear equations converged to 1.000D-10 1.000D-09 after     9 iterations.
 End of Minotr F.D. properties file   721 does not exist.
 End of Minotr F.D. properties file   722 does not exist.
 End of Minotr F.D. properties file   788 does not exist.
 Calling FoFJK, ICntrl=  10002127 FMM=F ISym2X=0 I1Cent= 0 IOpClX= 0 NMat=1 NMatS=1 NMatT=0.
 -------------------------------------------------------------------
 Center     Atomic                   Forces (Hartrees/Bohr)
 Number     Number              X              Y              Z
 -------------------------------------------------------------------
      1        7           0.000016232   -0.000024866    0.000000663
      2        1          -0.000006041    0.000009388    0.000010852
      3        1           0.000008479    0.000016770   -0.000005758
      4        1          -0.000018670   -0.000001292   -0.000005757
 -------------------------------------------------------------------
 Cartesian Forces:  Max     0.000024866 RMS     0.000012564
 -----------------------------------------------------------------------------------------------
                       Internal Coordinate Forces (Hartree/Bohr or radian)
  Cent   Atom   N1       Length/X         N2         Alpha/Y        N3         Beta/Z          J
 -----------------------------------------------------------------------------------------------
      1  N 
      2  H        1   0.000011(     1)
      3  H        1   0.000010(     2)      2   0.000006(     4)
      4  H        1   0.000010(     3)      2   0.000006(     5)      3   0.000031(     6)     0
 -----------------------------------------------------------------------------------------------
 Internal  Forces:  Max     0.000030609 RMS     0.000014818

 GradGradGradGradGradGradGradGradGradGradGradGradGradGradGradGradGradGrad
 Berny optimization.
 Search for a local minimum.
 Step number   4 out of a maximum of   40
 All quantities printed in internal units (Hartrees-Bohrs-Radians)
 Update second derivatives using D2CorN and points    1    2    3    4
 DE= -5.24D-07 DEPred=-5.82D-07 R= 9.00D-01
 Trust test= 9.00D-01 RLast= 4.54D-03 DXMaxT set to 3.00D-01
 The second derivative matrix:
                          R1        R2        A2        R3        A3
           R1           0.44998
           R2          -0.00012   0.45189
           A2           0.01197   0.01118   0.18359
           R3          -0.00013   0.00092   0.01118   0.45188
           A3           0.01197   0.01117   0.02359   0.01117   0.18359
           D3           0.01921   0.01801  -0.06693   0.01800  -0.06694
                          D3
           D3           0.11893
 ITU=  0  1  1  0
     Eigenvalues ---    0.05417   0.16000   0.26727   0.45082   0.45096
     Eigenvalues ---    0.45662
 RFO step:  Lambda= 0.00000000D+00 EMin= 5.41749510D-02
 Quartic linear search produced a step of -0.08762.
 Variable       Old X    -DE/DX   Delta X   Delta X   Delta X     New X
                                 (Linear)    (Quad)   (Total)
    R1        1.91239   0.00001  -0.00006   0.00005  -0.00001   1.91239
    R2        1.91240   0.00001  -0.00005   0.00004  -0.00001   1.91239
    A2        1.85582   0.00001   0.00017   0.00001   0.00018   1.85599
    R3        1.91240   0.00001  -0.00005   0.00004  -0.00001   1.91239
    A3        1.85581   0.00001   0.00017   0.00001   0.00018   1.85599
    D3        1.97258   0.00003   0.00030   0.00015   0.00046   1.97303
         Item               Value     Threshold  Converged?
 Maximum Force            0.000031     0.000450     YES
 RMS     Force            0.000015     0.000300     YES
 Maximum Displacement     0.000457     0.001800     YES
 RMS     Displacement     0.000213     0.001200     YES
 Predicted change in Energy=-8.050889D-09
 Optimization completed.
    -- Stationary point found.
                       ----------------------------
                       !   Optimized Parameters   !
                       ! (Angstroms and Degrees)  !
 ----------------------                            ----------------------
 !      Name          Value   Derivative information (Atomic Units)     !
 ------------------------------------------------------------------------
 !       R1          1.012    -DE/DX =    0.0                           !
 !       R2          1.012    -DE/DX =    0.0                           !
 !       A2        106.3304   -DE/DX =    0.0                           !
 !       R3          1.012    -DE/DX =    0.0                           !
 !       A3        106.3302   -DE/DX =    0.0                           !
 !       D3        113.0202   -DE/DX =    0.0                           !
 ------------------------------------------------------------------------
 GradGradGradGradGradGradGradGradGradGradGradGradGradGradGradGradGradGrad

 ---------------------------------------------------------------------------------------------------
                            Z-MATRIX (ANGSTROMS AND DEGREES)
   CD    Cent   Atom    N1       Length/X        N2       Alpha/Y        N3        Beta/Z          J
 ---------------------------------------------------------------------------------------------------
      1      1  N 
      2      2  H        1   1.011994(     1)
      3      3  H        1   1.011998(     2)      2  106.330(     4)
      4      4  H        1   1.011998(     3)      2  106.330(     5)      3  113.020(     6)      0
 ---------------------------------------------------------------------------------------------------
                         Z-Matrix orientation:                         
 ---------------------------------------------------------------------
 Center     Atomic      Atomic             Coordinates (Angstroms)
 Number     Number       Type             X           Y           Z
 ---------------------------------------------------------------------
      1          7           0        0.000000    0.000000    0.000000
      2          1           0        0.000000    0.000000    1.011994
      3          1           0        0.971170    0.000000   -0.284549
      4          1           0       -0.379783   -0.893833   -0.284547
 ---------------------------------------------------------------------
                    Distance matrix (angstroms):
                    1          2          3          4
     1  N    0.000000
     2  H    1.011994   0.000000
     3  H    1.011998   1.619936   0.000000
     4  H    1.011998   1.619935   1.619880   0.000000
 Symmetry turned off by external request.
 Stoichiometry    H3N
 Framework group  C1[X(H3N)]
 Deg. of freedom     6
 Full point group                 C1      NOp   1
 Rotational constants (GHZ):    298.3641841    298.3427344    191.0937355

 **********************************************************************

            Population analysis using the SCF density.

 **********************************************************************

 Alpha  occ. eigenvalues --  -14.80891  -0.97042  -0.52749  -0.52747  -0.33318
 Alpha virt. eigenvalues --    0.07414   0.15527   0.15527   0.38504   0.38505
 Alpha virt. eigenvalues --    0.49576   0.53081   0.60240   0.60240   0.64715
 Alpha virt. eigenvalues --    0.64717   0.68114   1.01095   1.02826   1.10142
 Alpha virt. eigenvalues --    1.10143   1.31211   1.31213   1.44965   1.61215
 Alpha virt. eigenvalues --    1.61216   1.64667   1.64667   1.74134   2.40812
 Alpha virt. eigenvalues --    2.40813   2.47654   3.14077   3.28367   3.28373
 Alpha virt. eigenvalues --    3.29832   3.34995   3.35980   3.35982   3.52818
 Alpha virt. eigenvalues --    3.60334   3.60335   3.60942   3.60943   3.77579
 Alpha virt. eigenvalues --    3.77582   3.80124   3.94262   4.03470   4.03472
 Alpha virt. eigenvalues --    4.20094   4.20097   4.34273   4.34276   4.41695
 Alpha virt. eigenvalues --    4.49504   4.81921   5.01333   5.01335   5.10124
 Alpha virt. eigenvalues --    5.51066   5.51069   5.67182   5.94379   5.94386
 Alpha virt. eigenvalues --    6.03230   6.09793   6.11107   6.11108   6.99318
 Alpha virt. eigenvalues --    6.99322  13.56310
          Condensed to atoms (all electrons):
               1          2          3          4
     1  N    6.292199   0.394799   0.394794   0.394793
     2  H    0.394799   0.537529  -0.045597  -0.045597
     3  H    0.394794  -0.045597   0.537545  -0.045602
     4  H    0.394793  -0.045597  -0.045602   0.537546
 Mulliken charges:
               1
     1  N   -0.476585
     2  H    0.158866
     3  H    0.158859
     4  H    0.158859
 Sum of Mulliken charges =  -0.00000
 Mulliken charges with hydrogens summed into heavy atoms:
               1
     1  N   -0.000000
 Electronic spatial extent (au):  <R**2>=             26.5643
 Charge=             -0.0000 electrons
 Dipole moment (field-independent basis, Debye):
    X=              0.8304    Y=             -1.2550    Z=              0.6219  Tot=              1.6283
 Quadrupole moment (field-independent basis, Debye-Ang):
   XX=             -6.8154   YY=             -7.6153   ZZ=             -6.5418
   XY=              0.9414   XZ=             -0.4666   YZ=              0.7053
 Traceless Quadrupole moment (field-independent basis, Debye-Ang):
   XX=              0.1755   YY=             -0.6245   ZZ=              0.4491
   XY=              0.9414   XZ=             -0.4666   YZ=              0.7053
 Octapole moment (field-independent basis, Debye-Ang**2):
  XXX=              0.2955  YYY=              0.4280  ZZZ=              0.7220  XYY=             -0.7805
  XXY=              0.3051  XXZ=             -0.6864  XZZ=             -0.2482  YZZ=              0.3751
  YYZ=             -0.5847  XYZ=             -0.1196
 Hexadecapole moment (field-independent basis, Debye-Ang**3):
 XXXX=             -9.6241 YYYY=             -9.9091 ZZZZ=             -9.4061 XXXY=             -0.0315
 XXXZ=             -0.4038 YYYX=              0.3669 YYYZ=              0.2749 ZZZX=              0.0318
 ZZZY=             -0.0481 XXYY=             -3.5117 XXZZ=             -3.6247 YYZZ=             -3.6302
 XXYZ=              0.0293 YYXZ=              0.2025 ZZXY=              0.0065
 N-N= 1.196049815941D+01 E-N=-1.559691154420D+02  KE= 5.623463242863D+01
 1\1\GINC-B460\FOpt\RB2PLYPD3-FC\CC-pVTZ\H3N1\KMOORE\25-Jan-2019\1\\# b
 2plypd3/cc-pvtz opt=(internal, maxcyc=40) # int=ultrafine nosym scf=xq
 c freq\\geom 0\\0,1\N\H,1,R1\H,1,R2,2,A2\H,1,R3,2,A3,3,D3,0\\R1=1.0119
 9383\R2=1.01199772\A2=106.33036803\R3=1.01199767\A3=106.33023758\D3=11
 3.02024998\\Version=ES64L-G09RevE.01\HF=-56.4577759\MP2=-56.5334037\RM
 SD=3.413e-09\RMSF=1.256e-05\Dipole=0.3202126,-0.4839741,0.2398314\PG=C
 01 [X(H3N1)]\\@


 SLITHERY-DITHERY
 FRIEDRICH A. KEKULE
 DREAMT ON A BUS OF THINGS
 FREUD WOULD THINK KEEN.
 MOST OF THE TIME THEY WERE
 HERPETOLOGICAL
 BITING THEIR TAILS IN THE
 SHAPE OF BENZENE.
 Job cpu time:       0 days  0 hours  2 minutes 34.1 seconds.
 File lengths (MBytes):  RWF=    127 Int=      0 D2E=      0 Chk=      2 Scr=      2
 Normal termination of Gaussian 09 at Fri Jan 25 14:46:53 2019.
 Link1:  Proceeding to internal job step number  2.
 ----------------------------------------------------------------------
 #N Geom=AllCheck Guess=TCheck SCRF=Check GenChk RB2PLYPD3(FC)/CC-pVTZ 
 Freq
 ----------------------------------------------------------------------
 1/6=40,10=4,29=7,30=1,38=1,40=1/1,3;
 2/12=2,15=1,40=1/2;
 3/5=16,6=1,11=1,14=-4,16=1,25=1,30=1,70=2,71=2,74=-60,75=-5,116=1,140=1/1,2,3;
 4/5=101/1;
 5/5=2,8=3,13=1,38=6,98=1/2,8;
 8/6=3,8=1,10=1,19=11,30=-1/1;
 9/15=3,16=-3/6;
 11/6=1,8=1,15=11,17=12,24=-1,27=1,28=-2,29=300,31=1,32=6,42=3/1,2,10;
 10/6=2,21=1,31=1/2;
 8/6=4,8=1,10=1,19=11,30=-1/11,4;
 10/5=1,20=4,31=1/2;
 11/12=2,14=11,16=1,17=2,28=-2,31=1,42=3/2,10,12;
 6/7=2,8=2,9=2,10=2/1;
 7/8=1,10=1,12=2,25=1,30=1,44=2/1,2,3,16;
 1/6=40,10=4,30=1/3;
 99//99;
 Structure from the checkpoint file:  "tmp.chk"
 ------
 geom 0
 ------
 Charge =  0 Multiplicity = 1
 Z-Matrix found in file.
 N
 H,1,R1
 H,1,R2,2,A2
 H,1,R3,2,A3,3,D3,0
      Variables:
 R1=1.01199383
 R2=1.01199772
 A2=106.33036803
 R3=1.01199767
 A3=106.33023758
 D3=113.02024998
 Recover connectivity data from disk.

 GradGradGradGradGradGradGradGradGradGradGradGradGradGradGradGradGradGrad
 Berny optimization.
 Initialization pass.
                       ----------------------------
                       !    Initial Parameters    !
                       ! (Angstroms and Degrees)  !
 ----------------------                            ----------------------
 !      Name          Value   Derivative information (Atomic Units)     !
 ------------------------------------------------------------------------
 !       R1          1.012    calculate D2E/DX2 analytically            !
 !       R2          1.012    calculate D2E/DX2 analytically            !
 !       A2        106.3304   calculate D2E/DX2 analytically            !
 !       R3          1.012    calculate D2E/DX2 analytically            !
 !       A3        106.3302   calculate D2E/DX2 analytically            !
 !       D3        113.0202   calculate D2E/DX2 analytically            !
 ------------------------------------------------------------------------
 Trust Radius=3.00D-01 FncErr=1.00D-07 GrdErr=1.00D-07
 Number of steps in this run=      2 maximum allowed number of steps=      2.
 GradGradGradGradGradGradGradGradGradGradGradGradGradGradGradGradGradGrad

                          Input orientation:                          
 ---------------------------------------------------------------------
 Center     Atomic      Atomic             Coordinates (Angstroms)
 Number     Number       Type             X           Y           Z
 ---------------------------------------------------------------------
      1          7           0        0.000000    0.000000    0.000000
      2          1           0        0.000000    0.000000    1.011994
      3          1           0        0.971170    0.000000   -0.284549
      4          1           0       -0.379783   -0.893833   -0.284547
 ---------------------------------------------------------------------
                    Distance matrix (angstroms):
                    1          2          3          4
     1  N    0.000000
     2  H    1.011994   0.000000
     3  H    1.011998   1.619936   0.000000
     4  H    1.011998   1.619935   1.619880   0.000000
 Symmetry turned off by external request.
 Stoichiometry    H3N
 Framework group  C1[X(H3N)]
 Deg. of freedom     6
 Full point group                 C1      NOp   1
 Rotational constants (GHZ):    298.3641841    298.3427344    191.0937355
 Standard basis: CC-pVTZ (5D, 7F)
    72 basis functions,   103 primitive gaussians,    80 cartesian basis functions
     5 alpha electrons        5 beta electrons
       nuclear repulsion energy        11.9609968979 Hartrees.
 NAtoms=    4 NActive=    4 NUniq=    4 SFac= 1.00D+00 NAtFMM=   60 NAOKFM=F Big=F
 Integral buffers will be    131072 words long.
 Raffenetti 1 integral format.
 Two-electron integral symmetry is turned off.
 Nuclear repulsion after empirical dispersion term =       11.9604981594 Hartrees.
 One-electron integrals computed using PRISM.
 NBasis=    72 RedAO= T EigKep=  1.81D-03  NBF=    72
 NBsUse=    72 1.00D-06 EigRej= -1.00D+00 NBFU=    72
 Initial guess from the checkpoint file:  "tmp.chk"
 B after Tr=     0.000000    0.000000    0.000000
         Rot=    1.000000    0.000000    0.000000    0.000000 Ang=   0.00 deg.
 Keep R1 ints in memory in canonical form, NReq=5448514.
 Requested convergence on RMS density matrix=1.00D-08 within  64 cycles.
 Requested convergence on MAX density matrix=1.00D-06.
 Requested convergence on             energy=1.00D-06.
 No special actions if energy rises.
 SCF Done:  E(RB2PLYPD3) =  -56.4577759431     A.U. after    1 cycles
            NFock=  1  Conv=0.29D-09     -V/T= 2.0040
 QCSCF skips out because SCF is already converged.
 DoSCS=T DFT=T ScalE2(SS,OS)=  0.270000  0.270000
 ExpMin= 1.03D-01 ExpMax= 1.14D+04 ExpMxC= 3.89D+02 IAcc=3 IRadAn=         5 AccDes= 0.00D+00
 HarFok:  IExCor=  205 AccDes= 0.00D+00 IRadAn=         5 IDoV=-2 UseB2=F ITyADJ=14
 ICtDFT= 12500011 ScaDFX=  1.000000  1.000000  1.000000  1.000000
 Range of M.O.s used for correlation:     2    72
 NBasis=    72 NAE=     5 NBE=     5 NFC=     1 NFV=     0
 NROrb=     71 NOA=     4 NOB=     4 NVA=    67 NVB=    67
 DoSCS=T DFT=T ScalE2(SS,OS)=  0.270000  0.270000
 Disk-based method using ON**2 memory for  4 occupieds at a time.
 Permanent disk used for amplitudes=      134335 words.
 Estimated scratch disk usage=     4020968 words.
 Actual    scratch disk usage=     4020968 words.
 JobTyp=1 Pass  1:  I=   2 to   5 NPSUse= 10 ParTrn=T ParDer=T DoDerP=T.
 (rs|ai) integrals will be sorted in core.
 Spin components of T(2) and E(2):
     alpha-alpha T2 =       0.1124962064D-01 E2=     -0.8456387979D-02
     alpha-beta  T2 =       0.7266866967D-01 E2=     -0.5871500590D-01
     beta-beta   T2 =       0.1124962064D-01 E2=     -0.8456387979D-02
 E2(B2PLYPD3) =    -0.7562778186D-01 E(B2PLYPD3) =    -0.56533403725000D+02
 G2DrvN: will do     5 centers at a time, making    1 passes.
 Calling FoFCou, ICntrl=  3107 FMM=F I1Cent=   0 AccDes= 0.00D+00.
 End of G2Drv F.D. properties file   721 does not exist.
 End of G2Drv F.D. properties file   722 does not exist.
 End of G2Drv F.D. properties file   788 does not exist.
          IDoAtm=1111
          Differentiating once with respect to electric field.
                with respect to dipole field.
          Differentiating once with respect to nuclear coordinates.
 Keep R1 ints in memory in canonical form, NReq=5435214.
          There are    15 degrees of freedom in the 1st order CPHF.  IDoFFX=6 NUNeed=    15.
     12 vectors produced by pass  0 Test12= 2.23D-15 6.67D-09 XBig12= 3.64D+00 8.89D-01.
 AX will form    12 AO Fock derivatives at one time.
     12 vectors produced by pass  1 Test12= 2.23D-15 6.67D-09 XBig12= 1.33D-01 1.60D-01.
     12 vectors produced by pass  2 Test12= 2.23D-15 6.67D-09 XBig12= 2.28D-03 1.85D-02.
     12 vectors produced by pass  3 Test12= 2.23D-15 6.67D-09 XBig12= 1.11D-05 1.07D-03.
     12 vectors produced by pass  4 Test12= 2.23D-15 6.67D-09 XBig12= 6.36D-08 8.93D-05.
     10 vectors produced by pass  5 Test12= 2.23D-15 6.67D-09 XBig12= 1.34D-10 3.14D-06.
      3 vectors produced by pass  6 Test12= 2.23D-15 6.67D-09 XBig12= 2.41D-13 1.96D-07.
      1 vectors produced by pass  7 Test12= 2.23D-15 6.67D-09 XBig12= 5.13D-16 8.47D-09.
 InvSVY:  IOpt=1 It=  1 EMax= 1.33D-15
 Solved reduced A of dimension    74 with    12 vectors.
 End of Minotr F.D. properties file   721 does not exist.
 End of Minotr F.D. properties file   722 does not exist.
 End of Minotr F.D. properties file   788 does not exist.
 MDV=  1048576000.
 DoSCS=T DFT=T ScalE2(SS,OS)=  0.270000  0.270000
 Form MO integral derivatives with frozen-active canonical formalism.
 Discarding MO integrals.
 Reordered first order wavefunction length =       224450
 In DefCFB: NBatch=  1 ICI=  5 ICA= 67 LFMax= 34
            Large arrays: LIAPS=     7718400 LIARS=     6566000 words.
 Semi-Direct transformation.
 ModeAB=           2 MOrb=             5 LenV=    1048273304
 LASXX=       878425 LTotXX=      878425 LenRXX=      878425
 LTotAB=      914775 MaxLAS=     1166400 LenRXY=     1166400
 NonZer=     1756850 LenScr=     3276800 LnRSAI=           0
 LnScr1=           0 LExtra=           0 Total=      5321625
 MaxDsk=          -1 SrtSym=           F ITran=            4
 JobTyp=0 Pass  1:  I=   1 to   5.
 (rs|ai) integrals will be sorted in core.
 DoSCS=T DFT=T ScalE2(SS,OS)=  0.270000  0.270000
 Spin components of T(2) and E(2):
     alpha-alpha T2 =       0.1124962064D-01 E2=     -0.8456387979D-02
     alpha-beta  T2 =       0.7266866967D-01 E2=     -0.5871500590D-01
     beta-beta   T2 =       0.1124962064D-01 E2=     -0.8456387979D-02
 E2(B2PLYPD3) =    -0.7562778186D-01 E(B2PLYPD3) =    -0.56533403725000D+02
          IDoAtm=1111
          Differentiating once with respect to electric field.
                with respect to dipole field.
          Differentiating once with respect to nuclear coordinates.
 Keep R1 ints in memory in canonical form, NReq=5434142.
          There are     1 degrees of freedom in the 1st order CPHF.  IDoFFX=0 NUNeed=     1.
 LinEq1:  Iter=  0 NonCon=     1 RMS=1.33D-03 Max=7.14D-03 NDo=     1
 AX will form     1 AO Fock derivatives at one time.
 LinEq1:  Iter=  1 NonCon=     1 RMS=6.89D-04 Max=7.16D-03 NDo=     1
 LinEq1:  Iter=  2 NonCon=     1 RMS=1.79D-04 Max=1.36D-03 NDo=     1
 LinEq1:  Iter=  3 NonCon=     1 RMS=2.62D-05 Max=1.84D-04 NDo=     1
 LinEq1:  Iter=  4 NonCon=     1 RMS=6.79D-06 Max=6.59D-05 NDo=     1
 LinEq1:  Iter=  5 NonCon=     1 RMS=7.28D-07 Max=5.28D-06 NDo=     1
 LinEq1:  Iter=  6 NonCon=     1 RMS=5.33D-08 Max=3.29D-07 NDo=     1
 LinEq1:  Iter=  7 NonCon=     1 RMS=3.71D-09 Max=2.14D-08 NDo=     1
 LinEq1:  Iter=  8 NonCon=     1 RMS=2.14D-10 Max=1.96D-09 NDo=     1
 LinEq1:  Iter=  9 NonCon=     0 RMS=1.36D-11 Max=1.10D-10 NDo=     1
 Linear equations converged to 1.000D-10 1.000D-09 after     9 iterations.
 End of Minotr F.D. properties file   721 does not exist.
 End of Minotr F.D. properties file   722 does not exist.
 End of Minotr F.D. properties file   788 does not exist.
 Symmetrizing basis deriv contribution to polar:
 IMax=3 JMax=2 DiffMx= 0.00D+00
 G2DrvN: will do     5 centers at a time, making    1 passes.
 Calling FoFCou, ICntrl=  3107 FMM=F I1Cent=   0 AccDes= 0.00D+00.
 End of G2Drv F.D. properties file   721 does not exist.
 End of G2Drv F.D. properties file   722 does not exist.
 End of G2Drv F.D. properties file   788 does not exist.
 DoSCS=T DFT=T ScalE2(SS,OS)=  0.270000  0.270000
 R2 and R3 integrals will be kept in memory, NReq=    12440840.
 DD1Dir will call FoFMem   1 times, MxPair=        40
 NAB=    15 NAA=    10 NBB=     0.
 Discarding MO integrals.

 **********************************************************************

            Population analysis using the SCF density.

 **********************************************************************

 Alpha  occ. eigenvalues --  -14.80891  -0.97042  -0.52749  -0.52747  -0.33318
 Alpha virt. eigenvalues --    0.07414   0.15527   0.15527   0.38504   0.38505
 Alpha virt. eigenvalues --    0.49576   0.53081   0.60240   0.60240   0.64715
 Alpha virt. eigenvalues --    0.64717   0.68114   1.01095   1.02826   1.10142
 Alpha virt. eigenvalues --    1.10143   1.31211   1.31213   1.44965   1.61215
 Alpha virt. eigenvalues --    1.61216   1.64667   1.64667   1.74134   2.40812
 Alpha virt. eigenvalues --    2.40813   2.47654   3.14077   3.28367   3.28373
 Alpha virt. eigenvalues --    3.29832   3.34995   3.35980   3.35982   3.52818
 Alpha virt. eigenvalues --    3.60334   3.60335   3.60942   3.60943   3.77579
 Alpha virt. eigenvalues --    3.77582   3.80124   3.94262   4.03470   4.03472
 Alpha virt. eigenvalues --    4.20094   4.20097   4.34273   4.34276   4.41695
 Alpha virt. eigenvalues --    4.49504   4.81921   5.01333   5.01335   5.10124
 Alpha virt. eigenvalues --    5.51066   5.51069   5.67182   5.94379   5.94386
 Alpha virt. eigenvalues --    6.03230   6.09793   6.11107   6.11108   6.99318
 Alpha virt. eigenvalues --    6.99322  13.56310
          Condensed to atoms (all electrons):
               1          2          3          4
     1  N    6.292199   0.394799   0.394794   0.394793
     2  H    0.394799   0.537529  -0.045597  -0.045597
     3  H    0.394794  -0.045597   0.537545  -0.045602
     4  H    0.394793  -0.045597  -0.045602   0.537546
 Mulliken charges:
               1
     1  N   -0.476585
     2  H    0.158866
     3  H    0.158859
     4  H    0.158859
 Sum of Mulliken charges =   0.00000
 Mulliken charges with hydrogens summed into heavy atoms:
               1
     1  N    0.000000
 APT charges:
               1
     1  N   -0.411663
     2  H    0.137228
     3  H    0.137218
     4  H    0.137217
 Sum of APT charges =  -0.00000
 APT charges with hydrogens summed into heavy atoms:
               1
     1  N   -0.000000
 Electronic spatial extent (au):  <R**2>=             26.5643
 Charge=              0.0000 electrons
 Dipole moment (field-independent basis, Debye):
    X=              0.8304    Y=             -1.2550    Z=              0.6219  Tot=              1.6283
 Quadrupole moment (field-independent basis, Debye-Ang):
   XX=             -6.8154   YY=             -7.6153   ZZ=             -6.5418
   XY=              0.9414   XZ=             -0.4666   YZ=              0.7053
 Traceless Quadrupole moment (field-independent basis, Debye-Ang):
   XX=              0.1755   YY=             -0.6245   ZZ=              0.4491
   XY=              0.9414   XZ=             -0.4666   YZ=              0.7053
 Octapole moment (field-independent basis, Debye-Ang**2):
  XXX=              0.2955  YYY=              0.4280  ZZZ=              0.7220  XYY=             -0.7805
  XXY=              0.3051  XXZ=             -0.6864  XZZ=             -0.2482  YZZ=              0.3751
  YYZ=             -0.5847  XYZ=             -0.1196
 Hexadecapole moment (field-independent basis, Debye-Ang**3):
 XXXX=             -9.6241 YYYY=             -9.9091 ZZZZ=             -9.4061 XXXY=             -0.0315
 XXXZ=             -0.4038 YYYX=              0.3669 YYYZ=              0.2749 ZZZX=              0.0318
 ZZZY=             -0.0481 XXYY=             -3.5117 XXZZ=             -3.6247 YYZZ=             -3.6302
 XXYZ=              0.0293 YYXZ=              0.2025 ZZXY=              0.0065
 N-N= 1.196049815941D+01 E-N=-1.559691153753D+02  KE= 5.623463239465D+01
  Exact polarizability:  11.015   0.570  10.531  -0.282   0.427  11.180
 Approx polarizability:  11.409   0.807  10.724  -0.400   0.604  11.643
 Calling FoFJK, ICntrl=  10100127 FMM=F ISym2X=0 I1Cent= 0 IOpClX= 0 NMat=1 NMatS=1 NMatT=0.
 Full mass-weighted force constant matrix:
 Low frequencies ---  -14.3281  -10.0529   -4.3964    0.0010    0.0010    0.0011
 Low frequencies --- 1080.4093 1687.9260 1687.9823
 Diagonal vibrational polarizability:
        1.0015997       2.0883910       0.6301084
 Harmonic frequencies (cm**-1), IR intensities (KM/Mole), Raman scattering
 activities (A**4/AMU), depolarization ratios for plane and unpolarized
 incident light, reduced masses (AMU), force constants (mDyne/A),
 and normal coordinates:
                      1                      2                      3
                      A                      A                      A
 Frequencies --   1080.4093              1687.9260              1687.9823
 Red. masses --      1.1807                 1.0658                 1.0658
 Frc consts  --      0.8120                 1.7891                 1.7892
 IR Inten    --    147.6804                16.2239                16.2207
  Atom  AN      X      Y      Z        X      Y      Z        X      Y      Z
     1   7     0.06  -0.09   0.04    -0.06  -0.04  -0.00    -0.02   0.02   0.06
     2   1    -0.32   0.48  -0.01     0.64   0.41  -0.00    -0.15   0.25   0.03
     3   1    -0.10   0.48  -0.30     0.10   0.01   0.45    -0.15  -0.48  -0.44
     4   1    -0.40   0.28  -0.30     0.03   0.09  -0.44     0.50  -0.05  -0.45
                      4                      5                      6
                      A                      A                      A
 Frequencies --   3487.9809              3612.9506              3613.0004
 Red. masses --      1.0267                 1.0887                 1.0887
 Frc consts  --      7.3593                 8.3727                 8.3730
 IR Inten    --      2.0666                 1.0603                 1.0625
  Atom  AN      X      Y      Z        X      Y      Z        X      Y      Z
     1   7    -0.02   0.03  -0.01    -0.06  -0.04  -0.00     0.02  -0.02  -0.07
     2   1    -0.03   0.04   0.58    -0.02  -0.01   0.04    -0.00   0.01   0.81
     3   1     0.54   0.04  -0.19     0.65  -0.00  -0.21    -0.43  -0.02   0.11
     4   1    -0.25  -0.49  -0.19     0.27   0.63   0.22     0.16   0.33   0.09

 -------------------
 - Thermochemistry -
 -------------------
 Temperature   298.150 Kelvin.  Pressure   1.00000 Atm.
 Atom     1 has atomic number  7 and mass  14.00307
 Atom     2 has atomic number  1 and mass   1.00783
 Atom     3 has atomic number  1 and mass   1.00783
 Atom     4 has atomic number  1 and mass   1.00783
 Molecular mass:    17.02655 amu.
 Principal axes and moments of inertia in atomic units:
                           1         2         3
     Eigenvalues --     6.04879   6.04922   9.44427
           X           -0.21990   0.83162  -0.50994
           Y            0.31252   0.55525   0.77074
           Z            0.92411   0.01012  -0.38200
 This molecule is an asymmetric top.
 Rotational symmetry number  1.
 Rotational temperatures (Kelvin)     14.31921    14.31818     9.17104
 Rotational constants (GHZ):         298.36418   298.34273   191.09374
 Zero-point vibrational energy      90738.2 (Joules/Mol)
                                   21.68696 (Kcal/Mol)
 Vibrational temperatures:   1554.47  2428.55  2428.63  5018.42  5198.22
          (Kelvin)           5198.30
 
 Zero-point correction=                           0.034560 (Hartree/Particle)
 Thermal correction to Energy=                    0.037424
 Thermal correction to Enthalpy=                  0.038369
 Thermal correction to Gibbs Free Energy=         0.015501
 Sum of electronic and zero-point Energies=            -56.498843
 Sum of electronic and thermal Energies=               -56.495979
 Sum of electronic and thermal Enthalpies=             -56.495035
 Sum of electronic and thermal Free Energies=          -56.517903
 
                     E (Thermal)             CV                S
                      KCal/Mol        Cal/Mol-Kelvin    Cal/Mol-Kelvin
 Total                   23.484              6.335             48.130
 Electronic               0.000              0.000              0.000
 Translational            0.889              2.981             34.441
 Rotational               0.889              2.981             13.611
 Vibrational             21.707              0.374              0.078
                       Q            Log10(Q)             Ln(Q)
 Total Bot       0.741734D-07         -7.129752        -16.416861
 Total V=0       0.584630D+09          8.766881         20.186490
 Vib (Bot)       0.127640D-15        -15.894012        -36.597315
 Vib (V=0)       0.100605D+01          0.002622          0.006037
 Electronic      0.100000D+01          0.000000          0.000000
 Translational   0.276150D+07          6.441145         14.831285
 Rotational      0.210433D+03          2.323115          5.349169
 -------------------------------------------------------------------
 Center     Atomic                   Forces (Hartrees/Bohr)
 Number     Number              X              Y              Z
 -------------------------------------------------------------------
      1        7           0.000016232   -0.000024866    0.000000667
      2        1          -0.000006042    0.000009388    0.000010849
      3        1           0.000008480    0.000016770   -0.000005759
      4        1          -0.000018670   -0.000001292   -0.000005757
 -------------------------------------------------------------------
 Cartesian Forces:  Max     0.000024866 RMS     0.000012564
 -----------------------------------------------------------------------------------------------
                       Internal Coordinate Forces (Hartree/Bohr or radian)
  Cent   Atom   N1       Length/X         N2         Alpha/Y        N3         Beta/Z          J
 -----------------------------------------------------------------------------------------------
      1  N 
      2  H        1   0.000011(     1)
      3  H        1   0.000010(     2)      2   0.000006(     4)
      4  H        1   0.000010(     3)      2   0.000006(     5)      3   0.000031(     6)     0
 -----------------------------------------------------------------------------------------------
 Internal  Forces:  Max     0.000030609 RMS     0.000014817

 GradGradGradGradGradGradGradGradGradGradGradGradGradGradGradGradGradGrad
 Berny optimization.
 Search for a local minimum.
 Step number   1 out of a maximum of    2
 All quantities printed in internal units (Hartrees-Bohrs-Radians)
 Second derivative matrix not updated -- analytic derivatives used.
 The second derivative matrix:
                          R1        R2        A2        R3        A3
           R1           0.45576
           R2          -0.00195   0.45575
           A2           0.02675   0.01748   0.17660
           R3          -0.00195  -0.00195  -0.00624   0.45575
           A3           0.02675  -0.00624   0.01966   0.01747   0.17660
           D3           0.00440   0.02535  -0.06057   0.02535  -0.06057
                          D3
           D3           0.11324
 ITU=  0
     Eigenvalues ---    0.05480   0.15509   0.24535   0.45676   0.45956
     Eigenvalues ---    0.46215
 Angle between quadratic step and forces=  32.35 degrees.
 Linear search not attempted -- first point.
 Variable       Old X    -DE/DX   Delta X   Delta X   Delta X     New X
                                 (Linear)    (Quad)   (Total)
    R1        1.91239   0.00001   0.00000  -0.00000  -0.00000   1.91239
    R2        1.91240   0.00001   0.00000  -0.00001  -0.00001   1.91239
    A2        1.85582   0.00001   0.00000   0.00017   0.00017   1.85599
    R3        1.91240   0.00001   0.00000  -0.00001  -0.00001   1.91239
    A3        1.85581   0.00001   0.00000   0.00017   0.00017   1.85599
    D3        1.97258   0.00003   0.00000   0.00046   0.00046   1.97303
         Item               Value     Threshold  Converged?
 Maximum Force            0.000031     0.000450     YES
 RMS     Force            0.000015     0.000300     YES
 Maximum Displacement     0.000459     0.001800     YES
 RMS     Displacement     0.000212     0.001200     YES
 Predicted change in Energy=-7.976427D-09
 Optimization completed.
    -- Stationary point found.
                       ----------------------------
                       !   Optimized Parameters   !
                       ! (Angstroms and Degrees)  !
 ----------------------                            ----------------------
 !      Name          Value   Derivative information (Atomic Units)     !
 ------------------------------------------------------------------------
 !       R1          1.012    -DE/DX =    0.0                           !
 !       R2          1.012    -DE/DX =    0.0                           !
 !       A2        106.3304   -DE/DX =    0.0                           !
 !       R3          1.012    -DE/DX =    0.0                           !
 !       A3        106.3302   -DE/DX =    0.0                           !
 !       D3        113.0202   -DE/DX =    0.0                           !
 ------------------------------------------------------------------------
 GradGradGradGradGradGradGradGradGradGradGradGradGradGradGradGradGradGrad

 1\1\GINC-B460\Freq\RB2PLYPD3-FC\CC-pVTZ\H3N1\KMOORE\25-Jan-2019\1\\#N 
 Geom=AllCheck Guess=TCheck SCRF=Check GenChk RB2PLYPD3(FC)/CC-pVTZ Fre
 q\\geom 0\\0,1\N\H,1,R1\H,1,R2,2,A2\H,1,R3,2,A3,3,D3,0\\R1=1.01199383\
 R2=1.01199772\A2=106.33036803\R3=1.01199767\A3=106.33023758\D3=113.020
 24998\\Version=ES64L-G09RevE.01\HF=-56.4577759\MP2=-56.5334037\RMSD=2.
 905e-10\RMSF=1.256e-05\ZeroPoint=0.0345604\Thermal=0.0374243\Dipole=0.
 3202125,-0.4839741,0.2398314\DipoleDeriv=-0.395982,0.0840881,-0.041673
 2,0.084089,-0.4674373,0.0629848,-0.0416729,0.0629858,-0.3715706,0.1870
 618,-0.0441969,-0.0368071,-0.0441964,0.2246204,0.0556312,-0.0133015,0.
 0201036,0.0000022,0.0012502,0.0068528,0.0411339,0.0409611,0.2246187,-0
 .0580551,0.0176339,-0.0480638,0.1857843,0.20767,-0.046744,0.0373464,-0
 .0808538,0.0181983,-0.0605608,0.0373404,-0.0350255,0.1857841\Polar=11.
 0147386,0.5696788,10.5306452,-0.2824246,0.4268581,11.1803356\PG=C01 [X
 (H3N1)]\NImag=0\\0.53356943,0.16379012,0.39438668,-0.08118689,0.122701
 75,0.58118411,-0.04567615,-0.02154633,-0.01665308,0.04827976,-0.021546
 62,-0.02736622,0.02516994,0.01725829,0.03361351,0.01488529,-0.02249825
 ,-0.43000842,-0.00914211,0.01381756,0.45575836,-0.40009059,-0.02765055
 ,0.11872514,-0.00169411,0.00281080,-0.00580704,0.41860429,0.01809553,-
 0.02736817,-0.02775136,0.00181078,-0.00273111,0.00239824,0.01811843,0.
 03361852,0.08718756,-0.01434984,-0.07558890,0.04396996,0.00106469,-0.0
 1287487,-0.11764289,0.01267655,0.08542997,-0.08780269,-0.11459324,-0.0
 2088517,-0.00090951,0.00147752,0.00006386,-0.01681959,-0.03802473,-0.0
 1351462,0.10553178,-0.16033903,-0.33965230,-0.12012033,0.00247726,-0.0
 0351618,0.00628244,0.00672132,-0.00351924,0.00060860,0.15114044,0.3466
 8771,-0.02088596,-0.08585367,-0.07558680,-0.01817477,-0.04005219,-0.01
 287508,0.00472480,0.01267657,0.00303380,0.03433593,0.11322928,0.085428
 08\\-0.00001623,0.00002487,-0.00000067,0.00000604,-0.00000939,-0.00001
 085,-0.00000848,-0.00001677,0.00000576,0.00001867,0.00000129,0.0000057
 6\\\@


 HAPPINESS IS NOT HAVING WHAT YOU WANT --
 HAPPINESS IS WANTING WHAT YOU HAVE!

              -- FROM MRS. SEVERN'S DESK
 Job cpu time:       0 days  0 hours  3 minutes 16.9 seconds.
 File lengths (MBytes):  RWF=    199 Int=      0 D2E=      0 Chk=      2 Scr=      2
 Normal termination of Gaussian 09 at Fri Jan 25 14:47:13 2019.
