 Entering Gaussian System, Link 0=g09
 Input=run.inp
 Output=run.out
 Initial command:
 /soft/gaussian/09-e.01/g09/l1.exe "/scratch/sjklipp/Gau-142431.inp" -scrdir="/scratch/sjklipp/"
 Entering Link 1 = /soft/gaussian/09-e.01/g09/l1.exe PID=    142432.
  
 Copyright (c) 1988,1990,1992,1993,1995,1998,2003,2009,2015,
            Gaussian, Inc.  All Rights Reserved.
  
 This is part of the Gaussian(R) 09 program.  It is based on
 the Gaussian(R) 03 system (copyright 2003, Gaussian, Inc.),
 the Gaussian(R) 98 system (copyright 1998, Gaussian, Inc.),
 the Gaussian(R) 94 system (copyright 1995, Gaussian, Inc.),
 the Gaussian 92(TM) system (copyright 1992, Gaussian, Inc.),
 the Gaussian 90(TM) system (copyright 1990, Gaussian, Inc.),
 the Gaussian 88(TM) system (copyright 1988, Gaussian, Inc.),
 the Gaussian 86(TM) system (copyright 1986, Carnegie Mellon
 University), and the Gaussian 82(TM) system (copyright 1983,
 Carnegie Mellon University). Gaussian is a federally registered
 trademark of Gaussian, Inc.
  
 This software contains proprietary and confidential information,
 including trade secrets, belonging to Gaussian, Inc.
  
 This software is provided under written license and may be
 used, copied, transmitted, or stored only in accord with that
 written license.
  
 The following legend is applicable only to US Government
 contracts under FAR:
  
                    RESTRICTED RIGHTS LEGEND
  
 Use, reproduction and disclosure by the US Government is
 subject to restrictions as set forth in subparagraphs (a)
 and (c) of the Commercial Computer Software - Restricted
 Rights clause in FAR 52.227-19.
  
 Gaussian, Inc.
 340 Quinnipiac St., Bldg. 40, Wallingford CT 06492
  
  
 ---------------------------------------------------------------
 Warning -- This program may not be used in any manner that
 competes with the business of Gaussian, Inc. or will provide
 assistance to any competitor of Gaussian, Inc.  The licensee
 of this program is prohibited from giving any competitor of
 Gaussian, Inc. access to this program.  By using this program,
 the user acknowledges that Gaussian, Inc. is engaged in the
 business of creating and licensing software in the field of
 computational chemistry and represents and warrants to the
 licensee that it is not a competitor of Gaussian, Inc. and that
 it will not use this program in any manner prohibited above.
 ---------------------------------------------------------------
  

 Cite this work as:
 Gaussian 09, Revision E.01,
 M. J. Frisch, G. W. Trucks, H. B. Schlegel, G. E. Scuseria, 
 M. A. Robb, J. R. Cheeseman, G. Scalmani, V. Barone, B. Mennucci, 
 G. A. Petersson, H. Nakatsuji, M. Caricato, X. Li, H. P. Hratchian, 
 A. F. Izmaylov, J. Bloino, G. Zheng, J. L. Sonnenberg, M. Hada, 
 M. Ehara, K. Toyota, R. Fukuda, J. Hasegawa, M. Ishida, T. Nakajima, 
 Y. Honda, O. Kitao, H. Nakai, T. Vreven, J. A. Montgomery, Jr., 
 J. E. Peralta, F. Ogliaro, M. Bearpark, J. J. Heyd, E. Brothers, 
 K. N. Kudin, V. N. Staroverov, T. Keith, R. Kobayashi, J. Normand, 
 K. Raghavachari, A. Rendell, J. C. Burant, S. S. Iyengar, J. Tomasi, 
 M. Cossi, N. Rega, J. M. Millam, M. Klene, J. E. Knox, J. B. Cross, 
 V. Bakken, C. Adamo, J. Jaramillo, R. Gomperts, R. E. Stratmann, 
 O. Yazyev, A. J. Austin, R. Cammi, C. Pomelli, J. W. Ochterski, 
 R. L. Martin, K. Morokuma, V. G. Zakrzewski, G. A. Voth, 
 P. Salvador, J. J. Dannenberg, S. Dapprich, A. D. Daniels, 
 O. Farkas, J. B. Foresman, J. V. Ortiz, J. Cioslowski, 
 and D. J. Fox, Gaussian, Inc., Wallingford CT, 2013.
 
 ******************************************
 Gaussian 09:  ES64L-G09RevE.01 30-Nov-2015
                23-Oct-2019 
 ******************************************
 %mem=20GB
 %NProcShared=10
 Will use up to   10 processors via shared memory.
 ----------------------------------------------------------------------
 #P b2plypd3/cc-pvtz # SCF=(xqc) # Freq=() # IOp(7/33=1) # int=ultrafin
 e
 ----------------------------------------------------------------------
 1/10=4,30=1,38=1/1,3;
 2/12=2,17=6,18=5,40=1/2;
 3/5=16,6=1,11=9,16=1,25=1,30=1,71=2,74=-60,75=-5,140=1/1,2,3;
 4//1;
 5/5=2,8=3,13=1,38=5,98=1/2,8;
 8/6=3,8=1,10=1,19=11,30=-1/1;
 9/15=3,16=-3/6;
 11/6=1,8=1,15=11,17=12,24=-1,27=1,28=-2,29=300,32=6,42=3/1,2,10;
 10/6=2,21=1/2;
 8/6=4,8=1,10=1,19=11,30=-1/11,4;
 10/5=1,20=4/2;
 11/12=2,14=11,16=1,17=2,28=-2,42=3/2,10,12;
 6/7=2,8=2,9=2,10=2/1;
 7/8=1,10=1,12=2,25=1,33=1,44=2/1,2,3,16;
 1/10=4,30=1/3;
 99//99;
 Leave Link    1 at Wed Oct 23 01:25:09 2019, MaxMem=  2684354560 cpu:         0.5
 (Enter /soft/gaussian/09-e.01/g09/l101.exe)
 --------
 comment:
 --------
 Symbolic Z-matrix:
 Charge =  0 Multiplicity = 2
 C                     1.13116  -0.86772   0.00002 
 C                     0.08273   0.12455  -0.00001 
 H                     0.9152   -1.92527  -0.00017 
 H                     2.15606  -0.53242   0.00008 
 C                    -1.34975  -0.36321   0.00001 
 O                     0.35594   1.32108  -0.00001 
 H                    -2.02214   0.48819  -0.00033 
 H                    -1.54078  -0.98016   0.87821 
 H                    -1.54069  -0.98075  -0.8778 
 
 NAtoms=      9 NQM=        9 NQMF=       0 NMMI=      0 NMMIF=      0
                NMic=       0 NMicF=      0.
                    Isotopes and Nuclear Properties:
 (Nuclear quadrupole moments (NQMom) in fm**2, nuclear magnetic moments (NMagM)
  in nuclear magnetons)

  Atom         1           2           3           4           5           6           7           8           9
 IAtWgt=          12          12           1           1          12          16           1           1           1
 AtmWgt=  12.0000000  12.0000000   1.0078250   1.0078250  12.0000000  15.9949146   1.0078250   1.0078250   1.0078250
 NucSpn=           0           0           1           1           0           0           1           1           1
 AtZEff=   0.0000000   0.0000000   0.0000000   0.0000000   0.0000000   0.0000000   0.0000000   0.0000000   0.0000000
 NQMom=    0.0000000   0.0000000   0.0000000   0.0000000   0.0000000   0.0000000   0.0000000   0.0000000   0.0000000
 NMagM=    0.0000000   0.0000000   2.7928460   2.7928460   0.0000000   0.0000000   2.7928460   2.7928460   2.7928460
 AtZNuc=   6.0000000   6.0000000   1.0000000   1.0000000   6.0000000   8.0000000   1.0000000   1.0000000   1.0000000
 Leave Link  101 at Wed Oct 23 01:25:09 2019, MaxMem=  2684354560 cpu:         0.5
 (Enter /soft/gaussian/09-e.01/g09/l103.exe)

 GradGradGradGradGradGradGradGradGradGradGradGradGradGradGradGradGradGrad
 Berny optimization.
 Initialization pass.
 Trust Radius=3.00D-01 FncErr=1.00D-07 GrdErr=1.00D-07
 Number of steps in this run=      2 maximum allowed number of steps=      2.
 GradGradGradGradGradGradGradGradGradGradGradGradGradGradGradGradGradGrad

 Leave Link  103 at Wed Oct 23 01:25:09 2019, MaxMem=  2684354560 cpu:         0.1
 (Enter /soft/gaussian/09-e.01/g09/l202.exe)
                          Input orientation:                          
 ---------------------------------------------------------------------
 Center     Atomic      Atomic             Coordinates (Angstroms)
 Number     Number       Type             X           Y           Z
 ---------------------------------------------------------------------
      1          6           0        1.131155   -0.867719    0.000018
      2          6           0        0.082732    0.124554   -0.000011
      3          1           0        0.915204   -1.925269   -0.000169
      4          1           0        2.156064   -0.532423    0.000082
      5          6           0       -1.349751   -0.363207    0.000010
      6          8           0        0.355940    1.321080   -0.000011
      7          1           0       -2.022135    0.488191   -0.000334
      8          1           0       -1.540777   -0.980161    0.878209
      9          1           0       -1.540689   -0.980745   -0.877802
 ---------------------------------------------------------------------
                    Distance matrix (angstroms):
                    1          2          3          4          5
     1  C    0.000000
     2  C    1.443536   0.000000
     3  H    1.079373   2.212416   0.000000
     4  H    1.078361   2.174931   1.865410   0.000000
     5  C    2.531685   1.513248   2.751374   3.509896   0.000000
     6  O    2.322025   1.227321   3.294170   2.583780   2.397124
     7  H    3.432452   2.136047   3.801677   4.301046   1.084887
     8  H    2.814797   2.151150   2.774278   3.825991   1.090118
     9  H    2.814621   2.151209   2.773766   3.825919   1.090121
                    6          7          8          9
     6  O    0.000000
     7  H    2.519711   0.000000
     8  H    3.108780   1.777527   0.000000
     9  H    3.109038   1.777502   1.756011   0.000000
 Stoichiometry    C3H5O(2)
 Framework group  C1[X(C3H5O)]
 Deg. of freedom    21
 Full point group                 C1      NOp   1
 Largest Abelian subgroup         C1      NOp   1
 Largest concise Abelian subgroup C1      NOp   1
                         Standard orientation:                         
 ---------------------------------------------------------------------
 Center     Atomic      Atomic             Coordinates (Angstroms)
 Number     Number       Type             X           Y           Z
 ---------------------------------------------------------------------
      1          6           0        1.131154   -0.867720    0.000018
      2          6           0        0.082732    0.124554   -0.000011
      3          1           0        0.915202   -1.925270   -0.000169
      4          1           0        2.156063   -0.532425    0.000082
      5          6           0       -1.349751   -0.363206    0.000010
      6          8           0        0.355941    1.321080   -0.000011
      7          1           0       -2.022135    0.488193   -0.000334
      8          1           0       -1.540778   -0.980160    0.878209
      9          1           0       -1.540690   -0.980744   -0.877802
 ---------------------------------------------------------------------
 Rotational constants (GHZ):     10.9511620      9.1387212      5.1390166
 Leave Link  202 at Wed Oct 23 01:25:09 2019, MaxMem=  2684354560 cpu:         0.1
 (Enter /soft/gaussian/09-e.01/g09/l301.exe)
 Standard basis: CC-pVTZ (5D, 7F)
 Ernie: Thresh=  0.10000D-02 Tol=  0.10000D-05 Strict=F.
 Ernie:  12 primitive shells out of 144 were deleted.
 There are   215 symmetry adapted cartesian basis functions of A   symmetry.
 There are   190 symmetry adapted basis functions of A   symmetry.
   190 basis functions,   293 primitive gaussians,   215 cartesian basis functions
    16 alpha electrons       15 beta electrons
       nuclear repulsion energy       112.1805758096 Hartrees.
 IExCor=  419 DFT=T Ex+Corr=B2PLYPD3 ExCW=0 ScaHFX=  0.530000
 ScaDFX=  0.470000  0.470000  0.730000  0.730000 ScalE2=  0.270000  0.270000
 IRadAn=      5 IRanWt=     -1 IRanGd=            0 ICorTp=0 IEmpDi=141
 NAtoms=    9 NActive=    9 NUniq=    9 SFac= 1.00D+00 NAtFMM=   60 NAOKFM=F Big=F
 Integral buffers will be    131072 words long.
 Regular integral format.
 Two-electron integral symmetry is turned on.
 R6Disp:  Grimme-D3(BJ) Dispersion energy=       -0.0040023766 Hartrees.
 Nuclear repulsion after empirical dispersion term =      112.1765734330 Hartrees.
 Leave Link  301 at Wed Oct 23 01:25:09 2019, MaxMem=  2684354560 cpu:         0.4
 (Enter /soft/gaussian/09-e.01/g09/l302.exe)
 NPDir=0 NMtPBC=     1 NCelOv=     1 NCel=       1 NClECP=     1 NCelD=      1
         NCelK=      1 NCelE2=     1 NClLst=     1 CellRange=     0.0.
 One-electron integrals computed using PRISM.
 NBasis=   190 RedAO= T EigKep=  6.72D-04  NBF=   190
 NBsUse=   190 1.00D-06 EigRej= -1.00D+00 NBFU=   190
 Precomputing XC quadrature grid using
 IXCGrd= 4 IRadAn=           5 IRanWt=          -1 IRanGd=           0 AccXCQ= 0.00D+00.
 Generated NRdTot=       0 NPtTot=           0 NUsed=           0 NTot=          32
 NSgBfM=   215   215   215   215   215 MxSgAt=     9 MxSgA2=     9.
 Leave Link  302 at Wed Oct 23 01:25:09 2019, MaxMem=  2684354560 cpu:         2.4
 (Enter /soft/gaussian/09-e.01/g09/l303.exe)
 DipDrv:  MaxL=1.
 Leave Link  303 at Wed Oct 23 01:25:09 2019, MaxMem=  2684354560 cpu:         0.2
 (Enter /soft/gaussian/09-e.01/g09/l401.exe)
 ExpMin= 1.03D-01 ExpMax= 1.53D+04 ExpMxC= 5.22D+02 IAcc=3 IRadAn=         5 AccDes= 0.00D+00
 Harris functional with IExCor=  419 and IRadAn=       5 diagonalized for initial guess.
 HarFok:  IExCor=  419 AccDes= 0.00D+00 IRadAn=         5 IDoV= 1 UseB2=F ITyADJ=14
 ICtDFT=  3500011 ScaDFX=  1.000000  1.000000  1.000000  1.000000
 FoFCou: FMM=F IPFlag=           0 FMFlag=      100000 FMFlg1=           0
         NFxFlg=           0 DoJE=T BraDBF=F KetDBF=T FulRan=T
         wScrn=  0.000000 ICntrl=     500 IOpCl=  0 I1Cent=   200000004 NGrid=           0
         NMat0=    1 NMatS0=      1 NMatT0=    0 NMatD0=    1 NMtDS0=    0 NMtDT0=    0
 Petite list used in FoFCou.
 Harris En= -192.599197724805    
 JPrj=0 DoOrth=F DoCkMO=F.
 Initial guess <Sx>= 0.0000 <Sy>= 0.0000 <Sz>= 0.5000 <S**2>= 0.7500 S= 0.5000
 Leave Link  401 at Wed Oct 23 01:25:10 2019, MaxMem=  2684354560 cpu:         6.5
 (Enter /soft/gaussian/09-e.01/g09/l502.exe)
 UHF open shell SCF:
 Using DIIS extrapolation, IDIIS=  1040.
 Integral symmetry usage will be decided dynamically.
 Keep R1 and R2 ints in memory in canonical form, NReq=334446245.
 IVT=      148335 IEndB=      148335 NGot=  2684354560 MDV=  2354947056
 LenX=  2354947056 LenY=  2354900390
 Requested convergence on RMS density matrix=1.00D-08 within  64 cycles.
 Requested convergence on MAX density matrix=1.00D-06.
 Requested convergence on             energy=1.00D-06.
 No special actions if energy rises.
 FoFCou: FMM=F IPFlag=           0 FMFlag=           0 FMFlg1=           0
         NFxFlg=           0 DoJE=F BraDBF=F KetDBF=F FulRan=T
         wScrn=  0.000000 ICntrl=     600 IOpCl=  0 I1Cent=           0 NGrid=           0
         NMat0=    1 NMatS0=  18145 NMatT0=    0 NMatD0=    1 NMtDS0=    0 NMtDT0=    0
 Symmetry not used in FoFCou.
 Integral accuracy reduced to 1.0D-05 until final iterations.

 Cycle   1  Pass 0  IDiag  1:
 E= -192.012766256188    
 DIIS: error= 3.28D-02 at cycle   1 NSaved=   1.
 NSaved= 1 IEnMin= 1 EnMin= -192.012766256188     IErMin= 1 ErrMin= 3.28D-02
 ErrMax= 3.28D-02  0.00D+00 EMaxC= 1.00D-01 BMatC= 8.86D-01 BMatP= 8.86D-01
 IDIUse=3 WtCom= 6.72D-01 WtEn= 3.28D-01
 Coeff-Com:  0.100D+01
 Coeff-En:   0.100D+01
 Coeff:      0.100D+01
 Gap=     0.378 Goal=   None    Shift=    0.000
 Gap=     0.181 Goal=   None    Shift=    0.000
 GapD=    0.181 DampG=1.000 DampE=0.500 DampFc=0.5000 IDamp=-1.
 Damping current iteration by 5.00D-01
 RMSDP=4.63D-03 MaxDP=2.28D-01              OVMax= 2.24D-01

 Cycle   2  Pass 0  IDiag  1:
 E= -192.093909519534     Delta-E=       -0.081143263346 Rises=F Damp=T
 DIIS: error= 7.36D-03 at cycle   2 NSaved=   2.
 NSaved= 2 IEnMin= 2 EnMin= -192.093909519534     IErMin= 2 ErrMin= 7.36D-03
 ErrMax= 7.36D-03  0.00D+00 EMaxC= 1.00D-01 BMatC= 7.91D-02 BMatP= 8.86D-01
 IDIUse=3 WtCom= 9.26D-01 WtEn= 7.36D-02
 Coeff-Com: -0.773D-01 0.108D+01
 Coeff-En:   0.000D+00 0.100D+01
 Coeff:     -0.716D-01 0.107D+01
 Gap=     0.430 Goal=   None    Shift=    0.000
 Gap=     0.288 Goal=   None    Shift=    0.000
 RMSDP=1.14D-03 MaxDP=6.02D-02 DE=-8.11D-02 OVMax= 1.41D-01

 Cycle   3  Pass 0  IDiag  1:
 E= -192.169860195722     Delta-E=       -0.075950676188 Rises=F Damp=F
 DIIS: error= 8.76D-03 at cycle   3 NSaved=   3.
 NSaved= 3 IEnMin= 3 EnMin= -192.169860195722     IErMin= 2 ErrMin= 7.36D-03
 ErrMax= 8.76D-03  0.00D+00 EMaxC= 1.00D-01 BMatC= 4.58D-02 BMatP= 7.91D-02
 IDIUse=3 WtCom= 9.12D-01 WtEn= 8.76D-02
 Coeff-Com: -0.114D+00 0.484D+00 0.629D+00
 Coeff-En:   0.000D+00 0.000D+00 0.100D+01
 Coeff:     -0.104D+00 0.442D+00 0.662D+00
 Gap=     0.386 Goal=   None    Shift=    0.000
 Gap=     0.259 Goal=   None    Shift=    0.000
 RMSDP=4.24D-04 MaxDP=1.64D-02 DE=-7.60D-02 OVMax= 6.44D-02

 Cycle   4  Pass 0  IDiag  1:
 E= -192.177579170275     Delta-E=       -0.007718974553 Rises=F Damp=F
 DIIS: error= 3.81D-03 at cycle   4 NSaved=   4.
 NSaved= 4 IEnMin= 4 EnMin= -192.177579170275     IErMin= 4 ErrMin= 3.81D-03
 ErrMax= 3.81D-03  0.00D+00 EMaxC= 1.00D-01 BMatC= 8.17D-03 BMatP= 4.58D-02
 IDIUse=3 WtCom= 9.62D-01 WtEn= 3.81D-02
 Coeff-Com: -0.219D-01 0.942D-02 0.313D+00 0.699D+00
 Coeff-En:   0.000D+00 0.000D+00 0.910D-01 0.909D+00
 Coeff:     -0.211D-01 0.906D-02 0.305D+00 0.707D+00
 Gap=     0.390 Goal=   None    Shift=    0.000
 Gap=     0.266 Goal=   None    Shift=    0.000
 RMSDP=1.75D-04 MaxDP=4.83D-03 DE=-7.72D-03 OVMax= 1.58D-02

 Cycle   5  Pass 0  IDiag  1:
 E= -192.179461060651     Delta-E=       -0.001881890375 Rises=F Damp=F
 DIIS: error= 8.76D-04 at cycle   5 NSaved=   5.
 NSaved= 5 IEnMin= 5 EnMin= -192.179461060651     IErMin= 5 ErrMin= 8.76D-04
 ErrMax= 8.76D-04  0.00D+00 EMaxC= 1.00D-01 BMatC= 2.55D-04 BMatP= 8.17D-03
 IDIUse=3 WtCom= 9.91D-01 WtEn= 8.76D-03
 Coeff-Com:  0.630D-02-0.236D-01-0.292D-01-0.172D-01 0.106D+01
 Coeff-En:   0.000D+00 0.000D+00 0.000D+00 0.000D+00 0.100D+01
 Coeff:      0.624D-02-0.234D-01-0.289D-01-0.171D-01 0.106D+01
 Gap=     0.391 Goal=   None    Shift=    0.000
 Gap=     0.270 Goal=   None    Shift=    0.000
 RMSDP=6.53D-05 MaxDP=3.31D-03 DE=-1.88D-03 OVMax= 1.20D-02

 Cycle   6  Pass 0  IDiag  1:
 E= -192.179700864986     Delta-E=       -0.000239804335 Rises=F Damp=F
 DIIS: error= 5.59D-04 at cycle   6 NSaved=   6.
 NSaved= 6 IEnMin= 6 EnMin= -192.179700864986     IErMin= 6 ErrMin= 5.59D-04
 ErrMax= 5.59D-04  0.00D+00 EMaxC= 1.00D-01 BMatC= 1.18D-04 BMatP= 2.55D-04
 IDIUse=3 WtCom= 9.94D-01 WtEn= 5.59D-03
 Coeff-Com:  0.988D-02-0.108D-01-0.106D+00-0.258D+00 0.267D+00 0.110D+01
 Coeff-En:   0.000D+00 0.000D+00 0.000D+00 0.000D+00 0.000D+00 0.100D+01
 Coeff:      0.982D-02-0.107D-01-0.105D+00-0.257D+00 0.266D+00 0.110D+01
 Gap=     0.395 Goal=   None    Shift=    0.000
 Gap=     0.271 Goal=   None    Shift=    0.000
 RMSDP=5.77D-05 MaxDP=2.95D-03 DE=-2.40D-04 OVMax= 1.13D-02

 Cycle   7  Pass 0  IDiag  1:
 E= -192.179842818338     Delta-E=       -0.000141953353 Rises=F Damp=F
 DIIS: error= 3.93D-04 at cycle   7 NSaved=   7.
 NSaved= 7 IEnMin= 7 EnMin= -192.179842818338     IErMin= 7 ErrMin= 3.93D-04
 ErrMax= 3.93D-04  0.00D+00 EMaxC= 1.00D-01 BMatC= 2.96D-05 BMatP= 1.18D-04
 IDIUse=3 WtCom= 9.96D-01 WtEn= 3.93D-03
 Coeff-Com: -0.116D-02 0.423D-02 0.157D-01 0.190D-02-0.271D+00-0.924D-01
 Coeff-Com:  0.134D+01
 Coeff-En:   0.000D+00 0.000D+00 0.000D+00 0.000D+00 0.000D+00 0.000D+00
 Coeff-En:   0.100D+01
 Coeff:     -0.115D-02 0.421D-02 0.156D-01 0.189D-02-0.270D+00-0.920D-01
 Coeff:      0.134D+01
 Gap=     0.395 Goal=   None    Shift=    0.000
 Gap=     0.272 Goal=   None    Shift=    0.000
 RMSDP=3.79D-05 MaxDP=2.18D-03 DE=-1.42D-04 OVMax= 8.92D-03

 Cycle   8  Pass 0  IDiag  1:
 E= -192.179896912639     Delta-E=       -0.000054094301 Rises=F Damp=F
 DIIS: error= 2.35D-04 at cycle   8 NSaved=   8.
 NSaved= 8 IEnMin= 8 EnMin= -192.179896912639     IErMin= 8 ErrMin= 2.35D-04
 ErrMax= 2.35D-04  0.00D+00 EMaxC= 1.00D-01 BMatC= 8.10D-06 BMatP= 2.96D-05
 IDIUse=3 WtCom= 9.98D-01 WtEn= 2.35D-03
 Coeff-Com: -0.189D-02 0.535D-03 0.279D-01 0.690D-01 0.257D-01-0.341D+00
 Coeff-Com: -0.361D+00 0.158D+01
 Coeff-En:   0.000D+00 0.000D+00 0.000D+00 0.000D+00 0.000D+00 0.000D+00
 Coeff-En:   0.000D+00 0.100D+01
 Coeff:     -0.188D-02 0.534D-03 0.278D-01 0.689D-01 0.256D-01-0.340D+00
 Coeff:     -0.360D+00 0.158D+01
 Gap=     0.395 Goal=   None    Shift=    0.000
 Gap=     0.272 Goal=   None    Shift=    0.000
 RMSDP=2.58D-05 MaxDP=1.46D-03 DE=-5.41D-05 OVMax= 6.46D-03

 Cycle   9  Pass 0  IDiag  1:
 E= -192.179915208058     Delta-E=       -0.000018295419 Rises=F Damp=F
 DIIS: error= 6.30D-05 at cycle   9 NSaved=   9.
 NSaved= 9 IEnMin= 9 EnMin= -192.179915208058     IErMin= 9 ErrMin= 6.30D-05
 ErrMax= 6.30D-05  0.00D+00 EMaxC= 1.00D-01 BMatC= 1.42D-06 BMatP= 8.10D-06
 IDIUse=1 WtCom= 1.00D+00 WtEn= 0.00D+00
 Coeff-Com:  0.286D-03-0.122D-02-0.132D-02 0.345D-02 0.669D-01-0.269D-01
 Coeff-Com: -0.322D+00 0.185D+00 0.110D+01
 Coeff:      0.286D-03-0.122D-02-0.132D-02 0.345D-02 0.669D-01-0.269D-01
 Coeff:     -0.322D+00 0.185D+00 0.110D+01
 Gap=     0.395 Goal=   None    Shift=    0.000
 Gap=     0.273 Goal=   None    Shift=    0.000
 RMSDP=1.08D-05 MaxDP=5.47D-04 DE=-1.83D-05 OVMax= 2.38D-03

 Cycle  10  Pass 0  IDiag  1:
 E= -192.179917673648     Delta-E=       -0.000002465590 Rises=F Damp=F
 DIIS: error= 2.98D-05 at cycle  10 NSaved=  10.
 NSaved=10 IEnMin=10 EnMin= -192.179917673648     IErMin=10 ErrMin= 2.98D-05
 ErrMax= 2.98D-05  0.00D+00 EMaxC= 1.00D-01 BMatC= 2.86D-07 BMatP= 1.42D-06
 IDIUse=1 WtCom= 1.00D+00 WtEn= 0.00D+00
 Coeff-Com:  0.551D-03-0.609D-03-0.655D-02-0.146D-01 0.107D-01 0.691D-01
 Coeff-Com:  0.216D-01-0.362D+00 0.267D+00 0.101D+01
 Coeff:      0.551D-03-0.609D-03-0.655D-02-0.146D-01 0.107D-01 0.691D-01
 Coeff:      0.216D-01-0.362D+00 0.267D+00 0.101D+01
 Gap=     0.395 Goal=   None    Shift=    0.000
 Gap=     0.273 Goal=   None    Shift=    0.000
 RMSDP=3.94D-06 MaxDP=2.08D-04 DE=-2.47D-06 OVMax= 8.96D-04

 Initial convergence to 1.0D-05 achieved.  Increase integral accuracy.
 Cycle  11  Pass 1  IDiag  1:
 E= -192.179914429216     Delta-E=        0.000003244433 Rises=F Damp=F
 DIIS: error= 5.35D-06 at cycle   1 NSaved=   1.
 NSaved= 1 IEnMin= 1 EnMin= -192.179914429216     IErMin= 1 ErrMin= 5.35D-06
 ErrMax= 5.35D-06  0.00D+00 EMaxC= 1.00D-01 BMatC= 1.57D-08 BMatP= 1.57D-08
 IDIUse=1 WtCom= 1.00D+00 WtEn= 0.00D+00
 Coeff-Com:  0.100D+01
 Coeff:      0.100D+01
 Gap=     0.395 Goal=   None    Shift=    0.000
 Gap=     0.273 Goal=   None    Shift=    0.000
 RMSDP=3.94D-06 MaxDP=2.08D-04 DE= 3.24D-06 OVMax= 3.78D-05

 Cycle  12  Pass 1  IDiag  1:
 E= -192.179914436929     Delta-E=       -0.000000007713 Rises=F Damp=F
 DIIS: error= 3.14D-06 at cycle   2 NSaved=   2.
 NSaved= 2 IEnMin= 2 EnMin= -192.179914436929     IErMin= 2 ErrMin= 3.14D-06
 ErrMax= 3.14D-06  0.00D+00 EMaxC= 1.00D-01 BMatC= 5.26D-09 BMatP= 1.57D-08
 IDIUse=1 WtCom= 1.00D+00 WtEn= 0.00D+00
 Coeff-Com:  0.179D+00 0.821D+00
 Coeff:      0.179D+00 0.821D+00
 Gap=     0.395 Goal=   None    Shift=    0.000
 Gap=     0.273 Goal=   None    Shift=    0.000
 RMSDP=1.83D-07 MaxDP=6.27D-06 DE=-7.71D-09 OVMax= 1.31D-05

 Cycle  13  Pass 1  IDiag  1:
 E= -192.179914438837     Delta-E=       -0.000000001908 Rises=F Damp=F
 DIIS: error= 2.08D-06 at cycle   3 NSaved=   3.
 NSaved= 3 IEnMin= 3 EnMin= -192.179914438837     IErMin= 3 ErrMin= 2.08D-06
 ErrMax= 2.08D-06  0.00D+00 EMaxC= 1.00D-01 BMatC= 2.17D-09 BMatP= 5.26D-09
 IDIUse=1 WtCom= 1.00D+00 WtEn= 0.00D+00
 Coeff-Com: -0.220D+00 0.302D+00 0.918D+00
 Coeff:     -0.220D+00 0.302D+00 0.918D+00
 Gap=     0.395 Goal=   None    Shift=    0.000
 Gap=     0.273 Goal=   None    Shift=    0.000
 RMSDP=1.47D-07 MaxDP=6.30D-06 DE=-1.91D-09 OVMax= 2.54D-05

 Cycle  14  Pass 1  IDiag  1:
 E= -192.179914439886     Delta-E=       -0.000000001050 Rises=F Damp=F
 DIIS: error= 1.59D-06 at cycle   4 NSaved=   4.
 NSaved= 4 IEnMin= 4 EnMin= -192.179914439886     IErMin= 4 ErrMin= 1.59D-06
 ErrMax= 1.59D-06  0.00D+00 EMaxC= 1.00D-01 BMatC= 8.29D-10 BMatP= 2.17D-09
 IDIUse=1 WtCom= 1.00D+00 WtEn= 0.00D+00
 Coeff-Com: -0.173D+00-0.509D-01 0.505D+00 0.719D+00
 Coeff:     -0.173D+00-0.509D-01 0.505D+00 0.719D+00
 Gap=     0.395 Goal=   None    Shift=    0.000
 Gap=     0.273 Goal=   None    Shift=    0.000
 RMSDP=9.73D-08 MaxDP=3.30D-06 DE=-1.05D-09 OVMax= 7.42D-06

 Cycle  15  Pass 1  IDiag  1:
 E= -192.179914440198     Delta-E=       -0.000000000312 Rises=F Damp=F
 DIIS: error= 5.27D-07 at cycle   5 NSaved=   5.
 NSaved= 5 IEnMin= 5 EnMin= -192.179914440198     IErMin= 5 ErrMin= 5.27D-07
 ErrMax= 5.27D-07  0.00D+00 EMaxC= 1.00D-01 BMatC= 6.56D-11 BMatP= 8.29D-10
 IDIUse=1 WtCom= 1.00D+00 WtEn= 0.00D+00
 Coeff-Com: -0.832D-02-0.633D-01 0.879D-02 0.133D+00 0.930D+00
 Coeff:     -0.832D-02-0.633D-01 0.879D-02 0.133D+00 0.930D+00
 Gap=     0.395 Goal=   None    Shift=    0.000
 Gap=     0.273 Goal=   None    Shift=    0.000
 RMSDP=3.24D-08 MaxDP=1.76D-06 DE=-3.12D-10 OVMax= 7.77D-06

 Cycle  16  Pass 1  IDiag  1:
 E= -192.179914440268     Delta-E=       -0.000000000069 Rises=F Damp=F
 DIIS: error= 3.61D-07 at cycle   6 NSaved=   6.
 NSaved= 6 IEnMin= 6 EnMin= -192.179914440268     IErMin= 6 ErrMin= 3.61D-07
 ErrMax= 3.61D-07  0.00D+00 EMaxC= 1.00D-01 BMatC= 2.81D-11 BMatP= 6.56D-11
 IDIUse=1 WtCom= 1.00D+00 WtEn= 0.00D+00
 Coeff-Com:  0.427D-01 0.574D-02-0.984D-01-0.229D+00-0.175D-02 0.128D+01
 Coeff:      0.427D-01 0.574D-02-0.984D-01-0.229D+00-0.175D-02 0.128D+01
 Gap=     0.395 Goal=   None    Shift=    0.000
 Gap=     0.273 Goal=   None    Shift=    0.000
 RMSDP=3.09D-08 MaxDP=1.64D-06 DE=-6.95D-11 OVMax= 7.04D-06

 Cycle  17  Pass 1  IDiag  1:
 E= -192.179914440311     Delta-E=       -0.000000000043 Rises=F Damp=F
 DIIS: error= 2.10D-07 at cycle   7 NSaved=   7.
 NSaved= 7 IEnMin= 7 EnMin= -192.179914440311     IErMin= 7 ErrMin= 2.10D-07
 ErrMax= 2.10D-07  0.00D+00 EMaxC= 1.00D-01 BMatC= 8.47D-12 BMatP= 2.81D-11
 IDIUse=1 WtCom= 1.00D+00 WtEn= 0.00D+00
 Coeff-Com: -0.153D-01 0.139D-01 0.595D-01 0.196D-01-0.343D+00-0.562D+00
 Coeff-Com:  0.183D+01
 Coeff:     -0.153D-01 0.139D-01 0.595D-01 0.196D-01-0.343D+00-0.562D+00
 Coeff:      0.183D+01
 Gap=     0.395 Goal=   None    Shift=    0.000
 Gap=     0.273 Goal=   None    Shift=    0.000
 RMSDP=3.01D-08 MaxDP=1.72D-06 DE=-4.34D-11 OVMax= 7.51D-06

 Cycle  18  Pass 1  IDiag  1:
 E= -192.179914440331     Delta-E=       -0.000000000021 Rises=F Damp=F
 DIIS: error= 6.85D-08 at cycle   8 NSaved=   8.
 NSaved= 8 IEnMin= 8 EnMin= -192.179914440331     IErMin= 8 ErrMin= 6.85D-08
 ErrMax= 6.85D-08  0.00D+00 EMaxC= 1.00D-01 BMatC= 1.51D-12 BMatP= 8.47D-12
 IDIUse=1 WtCom= 1.00D+00 WtEn= 0.00D+00
 Coeff-Com: -0.120D-01-0.470D-03 0.381D-01 0.442D-01-0.555D-01-0.388D+00
 Coeff-Com:  0.395D+00 0.979D+00
 Coeff:     -0.120D-01-0.470D-03 0.381D-01 0.442D-01-0.555D-01-0.388D+00
 Coeff:      0.395D+00 0.979D+00
 Gap=     0.395 Goal=   None    Shift=    0.000
 Gap=     0.273 Goal=   None    Shift=    0.000
 RMSDP=8.44D-09 MaxDP=4.77D-07 DE=-2.06D-11 OVMax= 1.98D-06

 SCF Done:  E(UB2PLYPD3) =  -192.179914440     A.U. after   18 cycles
            NFock= 18  Conv=0.84D-08     -V/T= 2.0043
 <Sx>= 0.0000 <Sy>= 0.0000 <Sz>= 0.5000 <S**2>= 0.7910 S= 0.5203
 <L.S>= 0.000000000000E+00
 KE= 1.913560012352D+02 PE=-6.735598864933D+02 EE= 1.778473973848D+02
 Annihilation of the first spin contaminant:
 S**2 before annihilation     0.7910,   after     0.7504
 Leave Link  502 at Wed Oct 23 01:25:33 2019, MaxMem=  2684354560 cpu:       155.4
 (Enter /soft/gaussian/09-e.01/g09/l508.exe)
 QCSCF skips out because SCF is already converged.
 Leave Link  508 at Wed Oct 23 01:25:33 2019, MaxMem=  2684354560 cpu:         0.0
 (Enter /soft/gaussian/09-e.01/g09/l801.exe)
 DoSCS=T DFT=T ScalE2(SS,OS)=  0.270000  0.270000
 ExpMin= 1.03D-01 ExpMax= 1.53D+04 ExpMxC= 5.22D+02 IAcc=3 IRadAn=         5 AccDes= 0.00D+00
 HarFok:  IExCor=  205 AccDes= 0.00D+00 IRadAn=         5 IDoV=-2 UseB2=F ITyADJ=14
 ICtDFT= 12500011 ScaDFX=  1.000000  1.000000  1.000000  1.000000
 Largest valence mixing into a core orbital is  1.19D-04
 Largest core mixing into a valence orbital is  1.71D-05
 Largest valence mixing into a core orbital is  1.25D-04
 Largest core mixing into a valence orbital is  1.83D-05
 Range of M.O.s used for correlation:     5   190
 NBasis=   190 NAE=    16 NBE=    15 NFC=     4 NFV=     0
 NROrb=    186 NOA=    12 NOB=    11 NVA=   174 NVB=   175

 **** Warning!!: The largest alpha MO coefficient is  0.11721353D+02


 **** Warning!!: The largest beta MO coefficient is  0.11712130D+02

 Leave Link  801 at Wed Oct 23 01:25:33 2019, MaxMem=  2684354560 cpu:         0.8
 (Enter /soft/gaussian/09-e.01/g09/l906.exe)
 DoSCS=T DFT=T ScalE2(SS,OS)=  0.270000  0.270000
 Frozen-core derivative calculation, NFC=   4 NFV=   0.
 FulOut=F Deriv=T AODrv=T NAtomX=     9
   MMem=           0  MDisk=          12 MDiskD=          12
  W3Min=     1307200 MinDsk=     2434135 NBas6D=         215
 NBas2D=       23661    NTT=       23220    LW2=     7400000
    MDV=  2683761653 MDiskM=       62366 NBas2p=       23652
 Disk-based method using ON**2 memory for 12 occupieds at a time.
 Permanent disk used for amplitudes=    10712745 words.
 Estimated scratch disk usage=   216907112 words.
 IMap=   1   2   3   4   5   6   7   8   9  10  11  12  13  14  15  16
 Actual    scratch disk usage=   209866088 words.
 JobTyp=2 Pass  1:  I=   5 to  16 NPSUse= 10 ParTrn=T ParDer=T DoDerP=T.
 (rs|ai) integrals will be sorted in core.
 IMap=   1   2   3   4   5   6   7   8   9  10  11  12  13  14  15
 Actual    scratch disk usage=   209866088 words.
 JobTyp=3 Pass  1:  I=   5 to  15 NPSUse= 10 ParTrn=T ParDer=T DoDerP=T.
 (rs|ai) integrals will be sorted in core.
 Spin components of T(2) and E(2):
     alpha-alpha T2 =       0.4201714791D-01 E2=     -0.2979192873D-01
     alpha-beta  T2 =       0.2331731482D+00 E2=     -0.1731810189D+00
     beta-beta   T2 =       0.3838874621D-01 E2=     -0.2589405542D-01
 The integrals were generated   2 times.
 E2(B2PLYPD3) =    -0.2288670031D+00 E(B2PLYPD3) =    -0.19240878144343D+03
 Leave Link  906 at Wed Oct 23 01:31:24 2019, MaxMem=  2684354560 cpu:      3505.4
 (Enter /soft/gaussian/09-e.01/g09/l1101.exe)
 Using compressed Sx but separate Hx and Fx, NAtomX=     9.
 Will process     10 centers per pass.
 R6Disp: Adding Grimme-D3(BJ) dispersion energy 1st derivatives to the gradient.
 Leave Link 1101 at Wed Oct 23 01:31:24 2019, MaxMem=  2684354560 cpu:         2.1
 (Enter /soft/gaussian/09-e.01/g09/l1102.exe)
 Leave Link 1102 at Wed Oct 23 01:31:25 2019, MaxMem=  2684354560 cpu:         0.1
 (Enter /soft/gaussian/09-e.01/g09/l1110.exe)
 Forming Gx(P) for the SCF density, NAtomX=     9.
 Integral derivatives from FoFJK, PRISM(SPDF).
 Do as many integral derivatives as possible in FoFJK.
 G2DrvN: MDV=    2684354384.
 G2DrvN: will do    10 centers at a time, making    1 passes.
 Calling FoFCou, ICntrl=  3107 FMM=F I1Cent=   0 AccDes= 0.00D+00.
 FoFJK:  IHMeth= 1 ICntrl=    3107 DoSepK=F KAlg= 0 I1Cent=   0 FoldK=F
 IRaf=         0 NMat=   1 IRICut=       1 DoRegI=T DoRafI=F ISym2E= 0.
 FoFCou: FMM=F IPFlag=           0 FMFlag=      100000 FMFlg1=           0
         NFxFlg=           0 DoJE=F BraDBF=F KetDBF=F FulRan=T
         wScrn=  0.000000 ICntrl=    3107 IOpCl=  1 I1Cent=           0 NGrid=           0
         NMat0=    1 NMatS0=      1 NMatT0=    0 NMatD0=    1 NMtDS0=    0 NMtDT0=    0
 Symmetry not used in FoFCou.
 End of G2Drv F.D. properties file   721 does not exist.
 End of G2Drv F.D. properties file   722 does not exist.
 End of G2Drv F.D. properties file   788 does not exist.
 Leave Link 1110 at Wed Oct 23 01:32:00 2019, MaxMem=  2684354560 cpu:       350.5
 (Enter /soft/gaussian/09-e.01/g09/l1002.exe)
 Minotr:  UHF open shell wavefunction.
          IDoAtm=111111111
          Frozen-core window.
          Direct CPHF calculation.
          Differentiating once with respect to electric field.
                with respect to dipole field.
          Differentiating once with respect to nuclear coordinates.
          Requested convergence is 1.0D-08 RMS, and 1.0D-07 maximum.
          Secondary convergence is 1.0D-12 RMS, and 1.0D-12 maximum.
          NewPWx=T KeepS1=T KeepF1=T KeepIn=T MapXYZ=F SortEE=F KeepMc=T.
          MDV=    2684354094 using IRadAn=       1.
 Generate precomputed XC quadrature information.
 Keep R1 and R2 ints in memory in canonical form, NReq=334302600.
 FoFCou: FMM=F IPFlag=           0 FMFlag=           0 FMFlg1=           0
         NFxFlg=           0 DoJE=F BraDBF=F KetDBF=F FulRan=T
         wScrn=  0.000000 ICntrl=     600 IOpCl=  0 I1Cent=           0 NGrid=           0
         NMat0=    1 NMatS0=  18145 NMatT0=    0 NMatD0=    1 NMtDS0=    0 NMtDT0=    0
 Symmetry not used in FoFCou.
          Solving linear equations simultaneously, MaxMat=       0.
          There are    30 degrees of freedom in the 1st order CPHF.  IDoFFX=6 NUNeed=    30.
     27 vectors produced by pass  0 Test12= 1.80D-14 3.33D-09 XBig12= 4.34D+01 3.13D+00.
 AX will form    27 AO Fock derivatives at one time.
     27 vectors produced by pass  1 Test12= 1.80D-14 3.33D-09 XBig12= 5.47D+00 5.62D-01.
     27 vectors produced by pass  2 Test12= 1.80D-14 3.33D-09 XBig12= 3.92D-01 1.91D-01.
     27 vectors produced by pass  3 Test12= 1.80D-14 3.33D-09 XBig12= 4.60D-03 9.51D-03.
     27 vectors produced by pass  4 Test12= 1.80D-14 3.33D-09 XBig12= 2.92D-05 6.93D-04.
     27 vectors produced by pass  5 Test12= 1.80D-14 3.33D-09 XBig12= 2.75D-07 1.18D-04.
     27 vectors produced by pass  6 Test12= 1.80D-14 3.33D-09 XBig12= 4.03D-09 1.29D-05.
     15 vectors produced by pass  7 Test12= 1.80D-14 3.33D-09 XBig12= 3.48D-11 7.94D-07.
      3 vectors produced by pass  8 Test12= 1.80D-14 3.33D-09 XBig12= 2.96D-13 7.33D-08.
      1 vectors produced by pass  9 Test12= 1.80D-14 3.33D-09 XBig12= 2.25D-15 5.44D-09.
 InvSVY:  IOpt=1 It=  1 EMax= 7.11D-15
 Solved reduced A of dimension   208 with    30 vectors.
 FullF1:  Do perturbations    1 to    30.
 Saving first derivative matrices.
 End of Minotr F.D. properties file   721 does not exist.
 End of Minotr F.D. properties file   722 does not exist.
 End of Minotr F.D. properties file   788 does not exist.
 Leave Link 1002 at Wed Oct 23 01:33:05 2019, MaxMem=  2684354560 cpu:       646.0
 (Enter /soft/gaussian/09-e.01/g09/l811.exe)
 MDV=  2684354560.
 DoSCS=T DFT=T ScalE2(SS,OS)=  0.270000  0.270000
 Form MO integral derivatives with frozen-active canonical formalism.
 MOERI=1 MOERIx=1 NAtoms=     9 NAtomX=     9.
 Discarding MO integrals.
 MO basis two electron integral derivatives will not be stored on disk.
 IAlg= 3 DoFC=T DoPWx=T Debug=F.
 Frozen-core window:  NFC=   4 NFV=   0.
 Reordered first order wavefunction length =     43359426
 In DefCFB: NBatch=  1 ICI= 16 ICA=175 LFMax= 59
            Large arrays: LIAPS=   883830600 LIARS=   294980000 words.
 In StABat: MaxSiz= 35 MinSiz= 15 NAtomB=  7
 DoIAMN: NPSUse= 10.
 In DefCFB: NBatch=  1 ICI= 16 ICA=175 LFMax= 59
            Large arrays: LIAPS=   883830600 LIARS=   294980000 words.
 In StABat: MaxSiz= 35 MinSiz= 15 NAtomB=  7
 Leave Link  811 at Wed Oct 23 01:38:23 2019, MaxMem=  2684354560 cpu:      3176.2
 (Enter /soft/gaussian/09-e.01/g09/l804.exe)
 Frozen-core window:  NFC=   4 NFV=   0.
 Open-shell transformation, MDV=  2684354560 ITran=4 ISComp=1.
 Semi-Direct transformation.
 ModeAB=           2 MOrb=            16 LenV=    2683149183
 LASXX=     51800100 LTotXX=    51800100 LenRXX=    51800100
 LTotAB=    52983400 MaxLAS=    70588800 LenRXY=    70588800
 NonZer=   103600200 LenScr=   156170240 LnRSAI=           0
 LnScr1=           0 LExtra=           0 Total=    278559140
 MaxDsk=          -1 SrtSym=           F ITran=            4
 DoSDTr:  NPSUse= 10
 JobTyp=1 Pass  1:  I=   1 to  16.
 (rs|ai) integrals will be sorted in core.
 Complete sort for first half transformation.
 First half transformation complete.
 Begin second half transformation for I=  10.
 Begin second half transformation for I=  10.
 Complete sort for second half transformation.
 Second half transformation complete.
 ModeAB=           2 MOrb=            15 LenV=    2683149183
 LASXX=     48736065 LTotXX=    48736065 LenRXX=    66177000
 LTotAB=    41792625 MaxLAS=    66177000 LenRXY=    41792625
 NonZer=    97472130 LenScr=   146982912 LnRSAI=           0
 LnScr1=           0 LExtra=           0 Total=    254952537
 MaxDsk=          -1 SrtSym=           F ITran=            4
 DoSDTr:  NPSUse= 10
 JobTyp=2 Pass  1:  I=   1 to  15.
 (rs|ai) integrals will be sorted in core.
 Complete sort for first half transformation.
 First half transformation complete.
 Begin second half transformation for I=  10.
 Begin second half transformation for I=  10.
 Complete sort for second half transformation.
 Second half transformation complete.
 SymMOI:  orbitals are not symmetric.
 DoSCS=T DFT=T ScalE2(SS,OS)=  0.270000  0.270000
 Spin components of T(2) and E(2):
     alpha-alpha T2 =       0.4201714791D-01 E2=     -0.2979192873D-01
     alpha-beta  T2 =       0.2331731482D+00 E2=     -0.1731810189D+00
     beta-beta   T2 =       0.3838874621D-01 E2=     -0.2589405542D-01
 E2(B2PLYPD3) =    -0.2288670031D+00 E(B2PLYPD3) =    -0.19240878144343D+03
 Leave Link  804 at Wed Oct 23 01:39:08 2019, MaxMem=  2684354560 cpu:       449.4
 (Enter /soft/gaussian/09-e.01/g09/l1002.exe)
 Minotr:  UHF open shell wavefunction.
          Computing MP2/KS-MP2 derivatives.
          Using Z-Vector for PSCF gradient.
          Skipping F1 and S1 gradient terms here.
          IDoAtm=111111111
          Frozen-core window.
          Direct CPHF calculation.
          Differentiating once with respect to electric field.
                with respect to dipole field.
          Differentiating once with respect to nuclear coordinates.
          Requested convergence is 1.0D-10 RMS, and 1.0D-09 maximum.
          NewPWx=T KeepS1=F KeepF1=F KeepIn=T MapXYZ=F SortEE=F KeepMc=T.
          MDV=    2684354094 using IRadAn=       5.
 Using stored XC quadrature information.
 Keep R1 and R2 ints in memory in canonical form, NReq=334299938.
 FoFCou: FMM=F IPFlag=           0 FMFlag=           0 FMFlg1=           0
         NFxFlg=           0 DoJE=F BraDBF=F KetDBF=F FulRan=T
         wScrn=  0.000000 ICntrl=     600 IOpCl=  0 I1Cent=           0 NGrid=           0
         NMat0=    1 NMatS0=  18145 NMatT0=    0 NMatD0=    1 NMtDS0=    0 NMtDT0=    0
 Symmetry not used in FoFCou.
          Solving linear equations separately, MaxMat=       0.
          There are     1 degrees of freedom in the 1st order CPHF.  IDoFFX=0 NUNeed=     1.
 LinEq1:  Iter=  0 NonCon=     1 RMS=1.09D-03 Max=3.63D-02 NDo=     1
 AX will form     1 AO Fock derivatives at one time.
 LinEq1:  Iter=  1 NonCon=     1 RMS=5.44D-04 Max=2.28D-02 NDo=     1
 LinEq1:  Iter=  2 NonCon=     1 RMS=3.42D-04 Max=8.68D-03 NDo=     1
 LinEq1:  Iter=  3 NonCon=     1 RMS=1.91D-04 Max=5.58D-03 NDo=     1
 LinEq1:  Iter=  4 NonCon=     1 RMS=9.90D-05 Max=4.55D-03 NDo=     1
 LinEq1:  Iter=  5 NonCon=     1 RMS=2.74D-05 Max=6.37D-04 NDo=     1
 LinEq1:  Iter=  6 NonCon=     1 RMS=1.30D-05 Max=3.14D-04 NDo=     1
 LinEq1:  Iter=  7 NonCon=     1 RMS=3.21D-06 Max=3.18D-05 NDo=     1
 LinEq1:  Iter=  8 NonCon=     1 RMS=7.83D-07 Max=9.53D-06 NDo=     1
 LinEq1:  Iter=  9 NonCon=     1 RMS=1.86D-07 Max=2.71D-06 NDo=     1
 LinEq1:  Iter= 10 NonCon=     1 RMS=5.71D-08 Max=9.39D-07 NDo=     1
 LinEq1:  Iter= 11 NonCon=     1 RMS=2.32D-08 Max=2.81D-07 NDo=     1
 LinEq1:  Iter= 12 NonCon=     1 RMS=8.42D-09 Max=1.30D-07 NDo=     1
 LinEq1:  Iter= 13 NonCon=     1 RMS=2.08D-09 Max=2.98D-08 NDo=     1
 LinEq1:  Iter= 14 NonCon=     1 RMS=4.90D-10 Max=5.82D-09 NDo=     1
 LinEq1:  Iter= 15 NonCon=     1 RMS=1.27D-10 Max=2.34D-09 NDo=     1
 LinEq1:  Iter= 16 NonCon=     1 RMS=3.02D-11 Max=1.06D-09 NDo=     1
 LinEq1:  Iter= 17 NonCon=     0 RMS=9.23D-12 Max=4.27D-10 NDo=     1
 Linear equations converged to 1.000D-10 1.000D-09 after    17 iterations.
 End of Minotr F.D. properties file   721 does not exist.
 End of Minotr F.D. properties file   722 does not exist.
 End of Minotr F.D. properties file   788 does not exist.
 Leave Link 1002 at Wed Oct 23 01:39:47 2019, MaxMem=  2684354560 cpu:       304.7
 (Enter /soft/gaussian/09-e.01/g09/l1102.exe)
 Use density number 2.
 Symmetrizing basis deriv contribution to polar:
 IMax=3 JMax=2 DiffMx= 0.00D+00
 Leave Link 1102 at Wed Oct 23 01:39:47 2019, MaxMem=  2684354560 cpu:         0.4
 (Enter /soft/gaussian/09-e.01/g09/l1110.exe)
 Forming Gx(P) for generalized density number  2 NAtomX=     9.
 Integral derivatives from FoFJK, PRISM(SPDF).
 Do as many integral derivatives as possible in FoFJK.
 G2DrvN: MDV=    2684354384.
 G2DrvN: will do    10 centers at a time, making    1 passes.
 Calling FoFCou, ICntrl=  3107 FMM=F I1Cent=   0 AccDes= 0.00D+00.
 FoFJK:  IHMeth= 1 ICntrl=    3107 DoSepK=F KAlg= 0 I1Cent=   0 FoldK=F
 IRaf=         0 NMat=   1 IRICut=       1 DoRegI=T DoRafI=F ISym2E= 0.
 FoFCou: FMM=F IPFlag=           0 FMFlag=      100000 FMFlg1=           0
         NFxFlg=           0 DoJE=F BraDBF=F KetDBF=F FulRan=T
         wScrn=  0.000000 ICntrl=    3107 IOpCl=  1 I1Cent=           0 NGrid=           0
         NMat0=    1 NMatS0=      1 NMatT0=    0 NMatD0=    1 NMtDS0=    0 NMtDT0=    0
 Symmetry not used in FoFCou.
 End of G2Drv F.D. properties file   721 does not exist.
 End of G2Drv F.D. properties file   722 does not exist.
 End of G2Drv F.D. properties file   788 does not exist.
 Leave Link 1110 at Wed Oct 23 01:40:24 2019, MaxMem=  2684354560 cpu:       365.4
 (Enter /soft/gaussian/09-e.01/g09/l1112.exe)
 MP22nd: MDV=    2684354560
 DoSCS=T DFT=T ScalE2(SS,OS)=  0.270000  0.270000
 Using stored XC quadrature information.
 This link is doing NAtomX=     9 total of    30 degrees of freedom.
 Using ON3 I/O method in MakUI.
 Frozen-core window:  NFC=   4 NFV=   0.
 Using Ix for Sx.
 Use MO integrals over full window.
 Using OV2 memory method for fx*t*t/D, MaxI=    15 DoOO2=F NP=  10.
 R2 and R3 integrals will be kept in memory, NReq=   544230360.
 FoFCou: FMM=F IPFlag=           0 FMFlag=           0 FMFlg1=           0
         NFxFlg=           0 DoJE=F BraDBF=F KetDBF=F FulRan=T
         wScrn=  0.000000 ICntrl=     600 IOpCl=  0 I1Cent=           0 NGrid=           0
         NMat0=    1 NMatS0=      1 NMatT0=    0 NMatD0=    1 NMtDS0=    0 NMtDT0=    0
 Symmetry not used in FoFCou.
 DD1Dir will call FoFMem   1 times, MxPair=       706
 NAB=   240 NAA=   120 NBB=   105.
 Symmetry is being used.
 FoFJK:  IHMeth= 1 ICntrl=       0 DoSepK=F KAlg= 0 I1Cent=   0 FoldK=F
 IRaf=         0 NMat=  30 IRICut=      75 DoRegI=T DoRafI=T ISym2E= 2.
 R6Disp: Adding Grimme-D3(BJ) dispersion energy 1st derivatives to the gradient.
 Discarding MO integrals.
 Leave Link 1112 at Wed Oct 23 01:43:11 2019, MaxMem=  2684354560 cpu:      1668.1
 (Enter /soft/gaussian/09-e.01/g09/l601.exe)
 Copying SCF densities to generalized density rwf, IOpCl= 1 IROHF=0.

 **********************************************************************

            Population analysis using the SCF density.

 **********************************************************************

 Orbital symmetries:
 Alpha Orbitals:
       Occupied  (A) (A) (A) (A) (A) (A) (A) (A) (A) (A) (A) (A)
                 (A) (A) (A) (A)
       Virtual   (A) (A) (A) (A) (A) (A) (A) (A) (A) (A) (A) (A)
                 (A) (A) (A) (A) (A) (A) (A) (A) (A) (A) (A) (A)
                 (A) (A) (A) (A) (A) (A) (A) (A) (A) (A) (A) (A)
                 (A) (A) (A) (A) (A) (A) (A) (A) (A) (A) (A) (A)
                 (A) (A) (A) (A) (A) (A) (A) (A) (A) (A) (A) (A)
                 (A) (A) (A) (A) (A) (A) (A) (A) (A) (A) (A) (A)
                 (A) (A) (A) (A) (A) (A) (A) (A) (A) (A) (A) (A)
                 (A) (A) (A) (A) (A) (A) (A) (A) (A) (A) (A) (A)
                 (A) (A) (A) (A) (A) (A) (A) (A) (A) (A) (A) (A)
                 (A) (A) (A) (A) (A) (A) (A) (A) (A) (A) (A) (A)
                 (A) (A) (A) (A) (A) (A) (A) (A) (A) (A) (A) (A)
                 (A) (A) (A) (A) (A) (A) (A) (A) (A) (A) (A) (A)
                 (A) (A) (A) (A) (A) (A) (A) (A) (A) (A) (A) (A)
                 (A) (A) (A) (A) (A) (A) (A) (A) (A) (A) (A) (A)
                 (A) (A) (A) (A) (A) (A)
 Beta  Orbitals:
       Occupied  (A) (A) (A) (A) (A) (A) (A) (A) (A) (A) (A) (A)
                 (A) (A) (A)
       Virtual   (A) (A) (A) (A) (A) (A) (A) (A) (A) (A) (A) (A)
                 (A) (A) (A) (A) (A) (A) (A) (A) (A) (A) (A) (A)
                 (A) (A) (A) (A) (A) (A) (A) (A) (A) (A) (A) (A)
                 (A) (A) (A) (A) (A) (A) (A) (A) (A) (A) (A) (A)
                 (A) (A) (A) (A) (A) (A) (A) (A) (A) (A) (A) (A)
                 (A) (A) (A) (A) (A) (A) (A) (A) (A) (A) (A) (A)
                 (A) (A) (A) (A) (A) (A) (A) (A) (A) (A) (A) (A)
                 (A) (A) (A) (A) (A) (A) (A) (A) (A) (A) (A) (A)
                 (A) (A) (A) (A) (A) (A) (A) (A) (A) (A) (A) (A)
                 (A) (A) (A) (A) (A) (A) (A) (A) (A) (A) (A) (A)
                 (A) (A) (A) (A) (A) (A) (A) (A) (A) (A) (A) (A)
                 (A) (A) (A) (A) (A) (A) (A) (A) (A) (A) (A) (A)
                 (A) (A) (A) (A) (A) (A) (A) (A) (A) (A) (A) (A)
                 (A) (A) (A) (A) (A) (A) (A) (A) (A) (A) (A) (A)
                 (A) (A) (A) (A) (A) (A) (A)
 The electronic state is 2-A.
 Alpha  occ. eigenvalues --  -19.72449 -10.70425 -10.65429 -10.61926  -1.19366
 Alpha  occ. eigenvalues --   -0.89461  -0.82171  -0.63053  -0.55490  -0.54541
 Alpha  occ. eigenvalues --   -0.52084  -0.48075  -0.45921  -0.44959  -0.33738
 Alpha  occ. eigenvalues --   -0.32377
 Alpha virt. eigenvalues --    0.07164   0.07609   0.11884   0.13791   0.15712
 Alpha virt. eigenvalues --    0.15980   0.19858   0.24393   0.27145   0.31552
 Alpha virt. eigenvalues --    0.34510   0.35826   0.37974   0.40321   0.43881
 Alpha virt. eigenvalues --    0.45695   0.49375   0.50593   0.51509   0.52493
 Alpha virt. eigenvalues --    0.53508   0.55403   0.55435   0.56954   0.63869
 Alpha virt. eigenvalues --    0.65291   0.70609   0.72603   0.74882   0.78643
 Alpha virt. eigenvalues --    0.80544   0.87193   0.91860   0.92899   0.94245
 Alpha virt. eigenvalues --    0.97928   1.00136   1.03373   1.04497   1.09193
 Alpha virt. eigenvalues --    1.11393   1.12565   1.14416   1.20648   1.24347
 Alpha virt. eigenvalues --    1.27149   1.29403   1.33266   1.35427   1.36392
 Alpha virt. eigenvalues --    1.39462   1.40699   1.40834   1.43402   1.47274
 Alpha virt. eigenvalues --    1.54315   1.58028   1.67555   1.72137   1.82096
 Alpha virt. eigenvalues --    1.84016   2.00130   2.03418   2.19319   2.19339
 Alpha virt. eigenvalues --    2.22711   2.28734   2.33324   2.35106   2.38578
 Alpha virt. eigenvalues --    2.46856   2.48149   2.53731   2.58863   2.64807
 Alpha virt. eigenvalues --    2.68957   2.68959   2.80230   2.81118   2.82300
 Alpha virt. eigenvalues --    2.87278   2.89593   2.90359   2.90859   2.93065
 Alpha virt. eigenvalues --    2.96080   3.00692   3.05118   3.08003   3.10472
 Alpha virt. eigenvalues --    3.11342   3.13158   3.15180   3.19868   3.21295
 Alpha virt. eigenvalues --    3.22948   3.26339   3.27368   3.32181   3.40016
 Alpha virt. eigenvalues --    3.44027   3.45850   3.47489   3.50275   3.51083
 Alpha virt. eigenvalues --    3.57808   3.57813   3.61858   3.63391   3.67199
 Alpha virt. eigenvalues --    3.69038   3.81672   3.82251   3.82492   3.86524
 Alpha virt. eigenvalues --    3.90922   3.92002   3.97374   3.98984   4.06057
 Alpha virt. eigenvalues --    4.07519   4.08359   4.12825   4.13475   4.15739
 Alpha virt. eigenvalues --    4.19328   4.21565   4.24119   4.27895   4.33033
 Alpha virt. eigenvalues --    4.37382   4.41520   4.44176   4.47742   4.48743
 Alpha virt. eigenvalues --    4.67070   4.72806   4.86133   4.88762   4.95024
 Alpha virt. eigenvalues --    4.97785   5.00663   5.06083   5.06133   5.11465
 Alpha virt. eigenvalues --    5.21645   5.27840   5.28023   5.33653   5.36089
 Alpha virt. eigenvalues --    5.37309   5.39606   5.41056   5.47065   5.51580
 Alpha virt. eigenvalues --    5.63262   5.77514   5.78832   5.84127   5.99298
 Alpha virt. eigenvalues --    5.99308   6.10689   6.37582   6.48504   6.56970
 Alpha virt. eigenvalues --    6.64191   6.95318   7.03613   7.22750   7.25965
 Alpha virt. eigenvalues --    9.48895  12.35373  13.19500  13.83649
  Beta  occ. eigenvalues --  -19.71316 -10.70858 -10.63967 -10.61905  -1.17103
  Beta  occ. eigenvalues --   -0.87514  -0.79504  -0.62155  -0.54893  -0.53709
  Beta  occ. eigenvalues --   -0.50839  -0.47441  -0.45652  -0.39896  -0.32579
  Beta virt. eigenvalues --   -0.05317   0.07765   0.10018   0.12287   0.13974
  Beta virt. eigenvalues --    0.15818   0.17062   0.19841   0.24359   0.27128
  Beta virt. eigenvalues --    0.31483   0.36293   0.38732   0.38823   0.42107
  Beta virt. eigenvalues --    0.44742   0.46350   0.49521   0.50733   0.52024
  Beta virt. eigenvalues --    0.53355   0.53658   0.55612   0.57240   0.57346
  Beta virt. eigenvalues --    0.64027   0.65518   0.71801   0.72852   0.77379
  Beta virt. eigenvalues --    0.78938   0.81933   0.87438   0.92190   0.93184
  Beta virt. eigenvalues --    0.94291   0.98544   1.00775   1.03865   1.04638
  Beta virt. eigenvalues --    1.09253   1.12144   1.12629   1.15601   1.20695
  Beta virt. eigenvalues --    1.25644   1.28210   1.29528   1.33346   1.36430
  Beta virt. eigenvalues --    1.36684   1.39923   1.40970   1.41337   1.43730
  Beta virt. eigenvalues --    1.47701   1.54682   1.58395   1.68075   1.73096
  Beta virt. eigenvalues --    1.84218   1.85302   2.00541   2.04232   2.19789
  Beta virt. eigenvalues --    2.23040   2.23154   2.29865   2.33848   2.35414
  Beta virt. eigenvalues --    2.39997   2.47546   2.48533   2.54029   2.60784
  Beta virt. eigenvalues --    2.65188   2.69292   2.70394   2.80623   2.81546
  Beta virt. eigenvalues --    2.84531   2.87328   2.90191   2.91299   2.91411
  Beta virt. eigenvalues --    2.94777   2.96651   3.01407   3.06196   3.08962
  Beta virt. eigenvalues --    3.10661   3.12379   3.13924   3.15613   3.20834
  Beta virt. eigenvalues --    3.22900   3.23293   3.27091   3.28393   3.32653
  Beta virt. eigenvalues --    3.40199   3.44274   3.45984   3.48017   3.50368
  Beta virt. eigenvalues --    3.51358   3.57772   3.58071   3.62293   3.63747
  Beta virt. eigenvalues --    3.67179   3.69689   3.81741   3.82347   3.82976
  Beta virt. eigenvalues --    3.86542   3.91259   3.92156   3.97279   3.99283
  Beta virt. eigenvalues --    4.06040   4.08207   4.08300   4.13072   4.13500
  Beta virt. eigenvalues --    4.15788   4.19935   4.22335   4.24035   4.29951
  Beta virt. eigenvalues --    4.33110   4.38367   4.41510   4.44281   4.48193
  Beta virt. eigenvalues --    4.48980   4.67422   4.72867   4.86734   4.89782
  Beta virt. eigenvalues --    4.95617   4.98016   5.00897   5.06251   5.07867
  Beta virt. eigenvalues --    5.11646   5.22069   5.28127   5.28337   5.33835
  Beta virt. eigenvalues --    5.37782   5.37893   5.39741   5.42799   5.47364
  Beta virt. eigenvalues --    5.51670   5.63580   5.78754   5.79318   5.84625
  Beta virt. eigenvalues --    5.99405   5.99455   6.11240   6.39536   6.49524
  Beta virt. eigenvalues --    6.60207   6.66923   6.95686   7.06172   7.23834
  Beta virt. eigenvalues --    7.26294   9.49029  12.36717  13.20437  13.83741
          Condensed to atoms (all electrons):
               1          2          3          4          5          6
     1  C    5.342088   0.377993   0.377101   0.385925  -0.135507  -0.113109
     2  C    0.377993   4.480007  -0.026763  -0.030283   0.321372   0.719028
     3  H    0.377101  -0.026763   0.525244  -0.024764   0.007683   0.004591
     4  H    0.385925  -0.030283  -0.024764   0.500853   0.009627   0.007779
     5  C   -0.135507   0.321372   0.007683   0.009627   5.053953  -0.100318
     6  O   -0.113109   0.719028   0.004591   0.007779  -0.100318   7.766005
     7  H    0.010287  -0.033394  -0.000559  -0.000430   0.390184   0.009338
     8  H    0.004050  -0.023436  -0.001112  -0.000378   0.380175   0.002245
     9  H    0.004055  -0.023436  -0.001113  -0.000378   0.380163   0.002248
               7          8          9
     1  C    0.010287   0.004050   0.004055
     2  C   -0.033394  -0.023436  -0.023436
     3  H   -0.000559  -0.001112  -0.001113
     4  H   -0.000430  -0.000378  -0.000378
     5  C    0.390184   0.380175   0.380163
     6  O    0.009338   0.002245   0.002248
     7  H    0.539996  -0.019157  -0.019168
     8  H   -0.019157   0.588999  -0.033627
     9  H   -0.019168  -0.033627   0.589034
          Atomic-Atomic Spin Densities.
               1          2          3          4          5          6
     1  C    0.912918   0.027878   0.007898   0.007201  -0.007577  -0.018876
     2  C    0.027878  -0.208919   0.000162  -0.000157   0.008490  -0.037801
     3  H    0.007898   0.000162  -0.049073   0.005315  -0.000781  -0.000170
     4  H    0.007201  -0.000157   0.005315  -0.046712  -0.000220   0.000052
     5  C   -0.007577   0.008490  -0.000781  -0.000220   0.008514   0.004189
     6  O   -0.018876  -0.037801  -0.000170   0.000052   0.004189   0.400397
     7  H   -0.000435   0.000109  -0.000004   0.000029   0.002341  -0.000965
     8  H   -0.000136   0.003159   0.000170  -0.000010  -0.000937   0.000033
     9  H   -0.000134   0.003157   0.000170  -0.000010  -0.000934   0.000033
               7          8          9
     1  C   -0.000435  -0.000136  -0.000134
     2  C    0.000109   0.003159   0.003157
     3  H   -0.000004   0.000170   0.000170
     4  H    0.000029  -0.000010  -0.000010
     5  C    0.002341  -0.000937  -0.000934
     6  O   -0.000965   0.000033   0.000033
     7  H   -0.003188  -0.000065  -0.000066
     8  H   -0.000065  -0.011113   0.003037
     9  H   -0.000066   0.003037  -0.011113
 Mulliken charges and spin densities:
               1          2
     1  C   -0.252882   0.928736
     2  C    0.238913  -0.203921
     3  H    0.139692  -0.036312
     4  H    0.152049  -0.034512
     5  C   -0.307332   0.013085
     6  O   -0.297808   0.346891
     7  H    0.122903  -0.002244
     8  H    0.102242  -0.005861
     9  H    0.102222  -0.005861
 Sum of Mulliken charges =  -0.00000   1.00000
 Mulliken charges and spin densities with hydrogens summed into heavy atoms:
               1          2
     1  C    0.038859   0.857912
     2  C    0.238913  -0.203921
     5  C    0.020036  -0.000881
     6  O   -0.297808   0.346891
 APT charges:
               1
     1  C   -0.119295
     2  C    0.726132
     3  H    0.034544
     4  H    0.045305
     5  C   -0.080345
     6  O   -0.644705
     7  H    0.015314
     8  H    0.011532
     9  H    0.011518
 Sum of APT charges =  -0.00000
 APT charges with hydrogens summed into heavy atoms:
               1
     1  C   -0.039446
     2  C    0.726132
     5  C   -0.041980
     6  O   -0.644705
 Electronic spatial extent (au):  <R**2>=            273.2294
 Charge=             -0.0000 electrons
 Dipole moment (field-independent basis, Debye):
    X=             -0.4588    Y=             -3.0366    Z=             -0.0000  Tot=              3.0711
 Quadrupole moment (field-independent basis, Debye-Ang):
   XX=            -22.5791   YY=            -27.0811   ZZ=            -24.6423
   XY=             -1.4738   XZ=              0.0000   YZ=              0.0002
 Traceless Quadrupole moment (field-independent basis, Debye-Ang):
   XX=              2.1884   YY=             -2.3136   ZZ=              0.1252
   XY=             -1.4738   XZ=              0.0000   YZ=              0.0002
 Octapole moment (field-independent basis, Debye-Ang**2):
  XXX=              3.7523  YYY=             -3.6375  ZZZ=              0.0006  XYY=             -0.9798
  XXY=              0.8581  XXZ=             -0.0000  XZZ=             -0.9847  YZZ=              1.6396
  YYZ=             -0.0010  XYZ=              0.0004
 Hexadecapole moment (field-independent basis, Debye-Ang**3):
 XXXX=           -180.2467 YYYY=           -139.1986 ZZZZ=            -31.5302 XXXY=             -1.7642
 XXXZ=              0.0015 YYYX=             -1.7709 YYYZ=              0.0024 ZZZX=             -0.0014
 ZZZY=             -0.0004 XXYY=            -54.9193 XXZZ=            -37.8657 YYZZ=            -28.0676
 XXYZ=             -0.0006 YYXZ=              0.0004 ZZXY=              2.6453
 N-N= 1.121765734330D+02 E-N=-6.735598824194D+02  KE= 1.913560012352D+02
  Exact polarizability:  42.392  -1.577  43.066   0.000   0.000  26.859
 Approx polarizability:  40.250  -0.169  50.690   0.000  -0.000  32.200
                          Isotropic Fermi Contact Couplings
        Atom                 a.u.       MegaHertz       Gauss      10(-4) cm-1
     1  C(13)              0.03268      36.73563      13.10819      12.25369
     2  C(13)             -0.02636     -29.63153     -10.57327      -9.88401
     3  H(1)              -0.01218     -54.44030     -19.42565     -18.15933
     4  H(1)              -0.01199     -53.58773     -19.12143     -17.87494
     5  C(13)             -0.00344      -3.86707      -1.37987      -1.28992
     6  O(17)              0.00979      -5.93489      -2.11772      -1.97967
     7  H(1)              -0.00032      -1.41878      -0.50626      -0.47326
     8  H(1)               0.00032       1.44060       0.51404       0.48053
     9  H(1)               0.00032       1.43444       0.51184       0.47848
 --------------------------------------------------------
       Center         ----  Spin Dipole Couplings  ----
                      3XX-RR        3YY-RR        3ZZ-RR
 --------------------------------------------------------
     1   Atom       -0.487402     -0.485083      0.972485
     2   Atom        0.016364      0.046720     -0.063084
     3   Atom       -0.060793      0.058882      0.001910
     4   Atom        0.051132     -0.050743     -0.000388
     5   Atom        0.005884     -0.007175      0.001292
     6   Atom       -0.470962     -0.459875      0.930837
     7   Atom        0.005699     -0.002228     -0.003471
     8   Atom        0.008385     -0.004209     -0.004176
     9   Atom        0.008386     -0.004209     -0.004177
 --------------------------------------------------------
                        XY            XZ            YZ
 --------------------------------------------------------
     1   Atom        0.001356     -0.000099     -0.000188
     2   Atom       -0.011526     -0.000006      0.000010
     3   Atom        0.022833     -0.000001      0.000012
     4   Atom        0.034849      0.000007     -0.000004
     5   Atom       -0.003776      0.000001      0.000001
     6   Atom        0.000995     -0.000194      0.000120
     7   Atom       -0.001396      0.000001      0.000000
     8   Atom        0.001249     -0.003540     -0.001071
     9   Atom        0.001252      0.003539      0.001071
 --------------------------------------------------------


 ---------------------------------------------------------------------------------
              Anisotropic Spin Dipole Couplings in Principal Axis System
 ---------------------------------------------------------------------------------

       Atom             a.u.   MegaHertz   Gauss  10(-4) cm-1        Axes

              Baa    -0.4880   -65.489   -23.368   -21.845  0.9082 -0.4185  0.0000
     1 C(13)  Bbb    -0.4845   -65.010   -23.197   -21.685  0.4185  0.9082  0.0001
              Bcc     0.9725   130.498    46.565    43.530 -0.0001 -0.0001  1.0000
 
              Baa    -0.0631    -8.465    -3.021    -2.824  0.0001 -0.0001  1.0000
     2 C(13)  Bbb     0.0125     1.675     0.598     0.559  0.9477  0.3191 -0.0000
              Bcc     0.0506     6.790     2.423     2.265 -0.3191  0.9477  0.0001
 
              Baa    -0.0650   -34.681   -12.375   -11.568  0.9834 -0.1813  0.0000
     3 H(1)   Bbb     0.0019     1.019     0.364     0.340 -0.0001 -0.0002  1.0000
              Bcc     0.0631    33.662    12.011    11.228  0.1813  0.9834  0.0002
 
              Baa    -0.0615   -32.826   -11.713   -10.950 -0.2955  0.9553  0.0001
     4 H(1)   Bbb    -0.0004    -0.207    -0.074    -0.069 -0.0001 -0.0001  1.0000
              Bcc     0.0619    33.033    11.787    11.019  0.9553  0.2955  0.0001
 
              Baa    -0.0082    -1.099    -0.392    -0.367  0.2592  0.9658 -0.0001
     5 C(13)  Bbb     0.0013     0.173     0.062     0.058 -0.0000  0.0001  1.0000
              Bcc     0.0069     0.925     0.330     0.309  0.9658 -0.2592  0.0001
 
              Baa    -0.4711    34.085    12.162    11.369  0.9961 -0.0887  0.0001
     6 O(17)  Bbb    -0.4598    33.270    11.872    11.098  0.0887  0.9961 -0.0001
              Bcc     0.9308   -67.355   -24.034   -22.467 -0.0001  0.0001  1.0000
 
              Baa    -0.0035    -1.852    -0.661    -0.618 -0.0001 -0.0003  1.0000
     7 H(1)   Bbb    -0.0025    -1.316    -0.470    -0.439  0.1685  0.9857  0.0003
              Bcc     0.0059     3.168     1.130     1.057  0.9857 -0.1685  0.0001
 
              Baa    -0.0055    -2.957    -1.055    -0.986  0.1667  0.5182  0.8388
     8 H(1)   Bbb    -0.0039    -2.098    -0.749    -0.700 -0.2238  0.8484 -0.4796
              Bcc     0.0095     5.055     1.804     1.686  0.9603  0.1078 -0.2575
 
              Baa    -0.0055    -2.956    -1.055    -0.986 -0.1666 -0.5180  0.8390
     9 H(1)   Bbb    -0.0039    -2.099    -0.749    -0.700 -0.2239  0.8486  0.4794
              Bcc     0.0095     5.056     1.804     1.686  0.9603  0.1080  0.2574
 

 ---------------------------------------------------------------------------------

 No NMR shielding tensors so no spin-rotation constants.
 Leave Link  601 at Wed Oct 23 01:43:11 2019, MaxMem=  2684354560 cpu:         4.0
 (Enter /soft/gaussian/09-e.01/g09/l701.exe)
 Compute integral second derivatives.
 ... and contract with generalized density number  2.
 Use density number 2.
 R6Disp: Adding Grimme-D3(BJ) dispersion energy 2nd derivatives to the Hessian.
 Entering OneElI...
 Calculate overlap and kinetic energy integrals
    NBasis = 215  MinDer = 2  MaxDer = 2
 Requested accuracy = 0.1000D-12
 PrsmSu:  NPrtUS=  10 ThrOK=T IAlg=1 NPAlg=1 LenDen=           0.
 Prism:   IPart=     0 DynPar=F LinDyn=F Incr=           2.
 PRISM was handed   268341631 working-precision words and  2485 shell-pairs
 PRISM was handed   268341631 working-precision words and  2485 shell-pairs
 PRISM was handed   268341631 working-precision words and  2485 shell-pairs
 PRISM was handed   268341631 working-precision words and  2485 shell-pairs
 PRISM was handed   268341631 working-precision words and  2485 shell-pairs
 PRISM was handed   268341631 working-precision words and  2485 shell-pairs
 PRISM was handed   268341631 working-precision words and  2485 shell-pairs
 PRISM was handed   268341631 working-precision words and  2485 shell-pairs
 PRISM was handed   268341631 working-precision words and  2485 shell-pairs
 PRISM was handed   268341631 working-precision words and  2485 shell-pairs
 IPart=  9 NShTot=         229 NBatch=          28 AvBLen=         8.2
 IPart=  8 NShTot=         229 NBatch=          28 AvBLen=         8.2
 IPart=  0 NShTot=         283 NBatch=          60 AvBLen=         4.7
 IPart=  7 NShTot=         229 NBatch=          28 AvBLen=         8.2
 IPart=  6 NShTot=         235 NBatch=          32 AvBLen=         7.3
 IPart=  5 NShTot=         240 NBatch=          33 AvBLen=         7.3
 IPart=  1 NShTot=         275 NBatch=          55 AvBLen=         5.0
 IPart=  2 NShTot=         261 NBatch=          49 AvBLen=         5.3
 IPart=  4 NShTot=         244 NBatch=          37 AvBLen=         6.6
 IPart=  3 NShTot=         260 NBatch=          48 AvBLen=         5.4
 PrSmSu:  NxtVal=             21.
 Entering OneElI...
 Calculate potential energy integrals
    NBasis = 215  MinDer = 2  MaxDer = 2
 Requested accuracy = 0.1000D-12
 PrsmSu:  NPrtUS=  10 ThrOK=T IAlg=1 NPAlg=1 LenDen=           0.
 Prism:   IPart=     0 DynPar=F LinDyn=F Incr=          21.
 PRISM was handed   268353559 working-precision words and  2436 shell-pairs
 PRISM was handed   268353559 working-precision words and  2436 shell-pairs
 PRISM was handed   268353559 working-precision words and  2436 shell-pairs
 PRISM was handed   268353559 working-precision words and  2436 shell-pairs
 PRISM was handed   268353559 working-precision words and  2436 shell-pairs
 PRISM was handed   268353559 working-precision words and  2436 shell-pairs
 PRISM was handed   268353559 working-precision words and  2436 shell-pairs
 PRISM was handed   268353559 working-precision words and  2436 shell-pairs
 PRISM was handed   268353559 working-precision words and  2436 shell-pairs
 PRISM was handed   268353559 working-precision words and  2436 shell-pairs
 IPart=  9 NShTot=        1998 NBatch=         222 AvBLen=         9.0
 IPart=  8 NShTot=        2007 NBatch=         223 AvBLen=         9.0
 IPart=  6 NShTot=        2070 NBatch=         230 AvBLen=         9.0
 IPart=  7 NShTot=        2025 NBatch=         225 AvBLen=         9.0
 IPart=  2 NShTot=        2331 NBatch=         259 AvBLen=         9.0
 IPart=  5 NShTot=        2106 NBatch=         234 AvBLen=         9.0
 IPart=  4 NShTot=        2169 NBatch=         241 AvBLen=         9.0
 IPart=  3 NShTot=        2268 NBatch=         252 AvBLen=         9.0
 IPart=  1 NShTot=        2439 NBatch=         271 AvBLen=         9.0
 IPart=  0 NShTot=        2511 NBatch=         279 AvBLen=         9.0
 PrSmSu:  NxtVal=            211.
 Polarizability after L701:
                1             2             3 
      1  0.423915D+02
      2 -0.157718D+01  0.430662D+02
      3  0.313675D-03  0.100602D-03  0.268591D+02
 Dipole Derivatives after L701:
                 1             2             3             4             5 
      1  -0.227318D+00  0.203796D+00 -0.283894D-04  0.108301D+01 -0.535791D-01
      2   0.201350D+00  0.523601D-01  0.952695D-04  0.829987D-01  0.945614D+00
      3   0.248585D-04  0.513625D-04 -0.182928D+00 -0.280669D-04 -0.547786D-04
                 6             7             8             9            10 
      1  -0.371029D-04  0.375876D-01 -0.244966D-02  0.141692D-04 -0.288351D-01
      2  -0.171390D-04 -0.469271D-01 -0.504935D-01 -0.606268D-04  0.877135D-02
      3   0.149771D+00 -0.163191D-04 -0.163655D-04  0.116538D+00 -0.966538D-05
                11            12            13            14            15 
      1  -0.359233D-01  0.577161D-05 -0.319640D+00 -0.144786D+00  0.100500D-03
      2   0.350980D-01 -0.189370D-04 -0.157054D+00 -0.192576D-01  0.583422D-04
      3  -0.105334D-04  0.129651D+00  0.290960D-04  0.305876D-04  0.978640D-01
                16            17            18            19            20 
      1  -0.594610D+00 -0.413650D-01  0.131160D-04 -0.637721D-02  0.889052D-01
      2  -0.105350D+00 -0.101247D+01 -0.716387D-05  0.235455D-01 -0.226575D-01
      3   0.897193D-05  0.216097D-04 -0.327039D+00 -0.138133D-04  0.360108D-04
                21            22            23            24            25 
      1  -0.496749D-04  0.280862D-01 -0.729131D-02  0.298573D-01  0.280949D-01
      2   0.255228D-04 -0.367661D-02  0.359650D-01  0.846267D-01 -0.365847D-02
      3   0.749767D-01 -0.157571D-01  0.757215D-01 -0.294557D-01  0.157620D-01
                26            27 
      1  -0.730686D-02 -0.298756D-01
      2   0.358384D-01 -0.847020D-01
      3  -0.757794D-01 -0.293780D-01
 Hessian after L701:
                1             2             3             4             5 
      1  0.593668D+01
      2  0.234490D+01  0.666200D+01
      3 -0.364383D-03 -0.321361D-03  0.120373D+02
      4 -0.245122D+01 -0.304078D+01  0.158854D-03  0.159772D+02
      5 -0.297766D+01 -0.299689D+01 -0.108313D-03 -0.183175D+01  0.634753D+01
      6  0.159027D-03 -0.998071D-04 -0.622191D+01 -0.633239D-04  0.152823D-03
      7 -0.295991D+01  0.386170D+00  0.716243D-04 -0.972723D-02  0.989957D-01
      8  0.516374D+00 -0.984864D+00  0.412571D-03  0.387582D-01 -0.551131D-01
      9  0.944960D-04  0.383374D-03 -0.297161D+01 -0.605837D-05  0.138278D-04
     10 -0.992108D+00  0.731124D+00  0.114618D-03 -0.260903D-01  0.546177D-01
     11  0.581538D+00 -0.288317D+01  0.251147D-04  0.882417D-01  0.240332D-01
     12  0.119593D-03  0.358487D-04 -0.302638D+01 -0.135487D-05  0.475958D-05
     13 -0.287726D+00  0.193514D+00 -0.262491D-04 -0.406252D+00  0.138202D+01
     14  0.135875D-01  0.179253D+00  0.317213D-05  0.145934D+01 -0.443967D+01
     15 -0.512110D-04  0.384352D-05  0.167897D+00 -0.208771D-04 -0.444808D-04
     16  0.396291D+00 -0.570110D+00  0.189628D-04 -0.130312D+02  0.330589D+01
     17 -0.477506D+00  0.131373D+00 -0.151812D-04  0.328034D+01  0.108098D+01
     18  0.123206D-04 -0.694755D-05  0.968414D-01 -0.290774D-04 -0.108445D-04
     19  0.131777D+00 -0.876850D-01  0.361205D-04 -0.629194D-02 -0.270492D-02
     20 -0.881978D-01 -0.131765D-01 -0.163234D-04 -0.412986D-01  0.552552D-01
     21  0.397292D-04 -0.162414D-04 -0.448405D-01  0.248509D-05 -0.182084D-04
     22  0.113069D+00  0.214069D-01 -0.547692D-01 -0.232200D-01 -0.146880D-01
     23  0.434390D-01 -0.472646D-01 -0.159216D-01  0.235870D-01 -0.807688D-02
     24 -0.843978D-01 -0.139017D-01 -0.186506D-01 -0.278635D-01 -0.304433D-01
     25  0.113144D+00  0.214583D-01  0.547596D-01 -0.232580D-01 -0.147233D-01
     26  0.435183D-01 -0.472710D-01  0.159419D-01  0.235667D-01 -0.805055D-02
     27  0.843883D-01  0.139230D-01 -0.186971D-01  0.278229D-01  0.304537D-01
                6             7             8             9            10 
      6  0.259597D+02
      7  0.799852D-05  0.299095D+01
      8  0.240746D-05 -0.270732D+00  0.838525D+00
      9  0.185367D-01 -0.508840D-04 -0.417944D-03  0.300683D+01
     10  0.000000D+00 -0.263173D-01 -0.114068D+00 -0.174769D-04  0.854709D+00
     11  0.472201D-05 -0.120220D+00 -0.514999D-01 -0.193709D-04 -0.479507D+00
     12  0.362774D-01 -0.225882D-04 -0.234154D-04  0.627705D-01 -0.109665D-03
     13 -0.311241D-04  0.626025D-01 -0.146674D+00 -0.130799D-04  0.171971D+00
     14 -0.597871D-04 -0.989403D-01  0.606551D-01  0.129630D-04 -0.118949D-01
     15 -0.483077D+01 -0.383148D-05  0.716857D-05 -0.677723D-01  0.830847D-05
     16 -0.321175D-04 -0.499866D-01 -0.243971D-03  0.000000D+00  0.339870D-02
     17 -0.193890D-05  0.381887D-03  0.197112D+00  0.249815D-04 -0.185524D+00
     18 -0.150231D+02 -0.176521D-05  0.171729D-04 -0.465156D-01  0.491283D-05
     19 -0.342427D-04 -0.245762D-02 -0.681800D-02 -0.155539D-05  0.361327D-02
     20 -0.907741D-05  0.826577D-03  0.749176D-02  0.143510D-05 -0.708079D-02
     21  0.175752D-01  0.000000D+00 -0.330313D-05 -0.109774D-02  0.384408D-05
     22  0.193022D-01 -0.257436D-02 -0.829851D-02 -0.931705D-03  0.541146D-02
     23 -0.266562D-01  0.175625D-02 -0.615003D-02 -0.874791D-03  0.616409D-02
     24  0.218853D-01 -0.298482D-02  0.107797D-01 -0.569817D-03 -0.851072D-02
     25 -0.193075D-01 -0.257856D-02 -0.829816D-02  0.926561D-03  0.541209D-02
     26  0.266669D-01  0.176167D-02 -0.615646D-02  0.875525D-03  0.616940D-02
     27  0.218496D-01  0.298404D-02 -0.107744D-01 -0.575821D-03  0.850705D-02
               11            12            13            14            15 
     11  0.290285D+01
     12 -0.709415D-05  0.305978D+01
     13 -0.106732D-01  0.842317D-05  0.798705D+01
     14 -0.508205D-01  0.000000D+00 -0.103386D+01  0.110274D+02
     15  0.000000D+00 -0.447632D-01 -0.180911D-03  0.185568D-03  0.113609D+02
     16 -0.665301D-01  0.479296D-05  0.763362D+00  0.351491D+00  0.267426D-04
     17  0.594458D-01 -0.100971D-04  0.265602D+00 -0.149279D+00 -0.112653D-04
     18 -0.341656D-05 -0.864060D-01  0.400609D-04  0.000000D+00 -0.458407D-01
     19  0.354608D-02  0.000000D+00 -0.226090D+01 -0.114518D+01  0.496064D-03
     20 -0.108731D-02  0.000000D+00 -0.997180D+00 -0.182074D+01 -0.578160D-03
     21  0.000000D+00 -0.525028D-03  0.441712D-03 -0.599098D-03 -0.311425D+01
     22  0.180206D-02 -0.758646D-03 -0.301505D+01  0.232660D+00 -0.348039D+00
     23  0.122942D-03 -0.849744D-03  0.173588D+00 -0.240401D+01 -0.935762D+00
     24 -0.227652D-02 -0.374996D-03 -0.253736D+00 -0.909103D+00 -0.171218D+01
     25  0.180226D-02  0.758772D-03 -0.301505D+01  0.232800D+00  0.347764D+00
     26  0.124802D-03  0.850919D-03  0.173661D+00 -0.240274D+01  0.936200D+00
     27  0.227646D-02 -0.375260D-03  0.253497D+00  0.909560D+00 -0.171325D+01
               16            17            18            19            20 
     16  0.118084D+02
     17 -0.320402D+01 -0.141952D+01
     18 -0.236491D-04  0.756717D-05  0.152110D+02
     19  0.119640D+00  0.165150D+00  0.206651D-04  0.195018D+01
     20  0.421421D-01 -0.618806D-01  0.222573D-05  0.102856D+01  0.193487D+01
     21  0.452425D-04  0.328272D-04 -0.967775D-01 -0.520801D-03  0.593714D-03
     22 -0.493929D-02  0.777847D-01 -0.451909D-01  0.322068D-01  0.310949D-01
     23  0.706870D-01  0.808417D-01 -0.631904D-01  0.225442D-01 -0.503120D-01
     24 -0.537653D-01 -0.907094D-01 -0.460280D-02 -0.212359D-01  0.372048D-01
     25 -0.496465D-02  0.777928D-01  0.451674D-01  0.322247D-01  0.311349D-01
     26  0.706959D-01  0.809264D-01  0.631845D-01  0.225912D-01 -0.504142D-01
     27  0.537257D-01  0.906825D-01 -0.464272D-02  0.212390D-01 -0.371982D-01
               21            22            23            24            25 
     21  0.322366D+01
     22 -0.368667D-01  0.282440D+01
     23  0.718542D-01 -0.350195D+00  0.234966D+01
     24  0.808541D-02  0.459866D+00  0.985004D+00  0.185136D+01
     25  0.368542D-01  0.707042D-01  0.842954D-02 -0.737168D-02  0.282437D+01
     26 -0.718445D-01  0.843284D-02  0.851922D-01  0.134450D-01 -0.350397D+00
     27  0.817131D-02  0.738796D-02 -0.136035D-01 -0.144952D+00 -0.459552D+00
               26            27 
     26  0.234839D+01
     27 -0.985320D+00  0.185247D+01
 Leave Link  701 at Wed Oct 23 01:43:12 2019, MaxMem=  2684354560 cpu:         2.8
 (Enter /soft/gaussian/09-e.01/g09/l702.exe)
 L702 exits ... SP integral derivatives will be done elsewhere.
 Leave Link  702 at Wed Oct 23 01:43:12 2019, MaxMem=  2684354560 cpu:         0.2
 (Enter /soft/gaussian/09-e.01/g09/l703.exe)
 Compute integral second derivatives, UseDBF=F ICtDFT=           0.
 Integral derivatives from FoFJK, PRISM(SPDF).
 ICntrl=  10100127.
 Calling FoFJK, ICntrl=  10100127 FMM=F ISym2X=0 I1Cent= 0 IOpClX= 1 NMat=1 NMatS=1 NMatT=0.
 FoFJK:  IHMeth= 1 ICntrl=10100127 DoSepK=F KAlg= 0 I1Cent=   0 FoldK=F
 IRaf=         0 NMat=   1 IRICut=       1 DoRegI=T DoRafI=F ISym2E= 0.
 FoFCou: FMM=F IPFlag=           0 FMFlag=      100000 FMFlg1=         800
         NFxFlg=           0 DoJE=F BraDBF=F KetDBF=F FulRan=T
         wScrn=  0.000000 ICntrl=10100127 IOpCl=  1 I1Cent=           0 NGrid=           0
         NMat0=    1 NMatS0=      1 NMatT0=    0 NMatD0=    1 NMtDS0=    0 NMtDT0=    0
 Symmetry not used in FoFCou.
 FoFCou:  KetSym=F NOpSet=  1 NOpAb=1 NOp=  1.
 FoFCou:  CnvScl= 1.00D+00 Thresh= 1.00D-10 IAcrcy=      10.
 PrismS was handed  2684065591 working-precision words and  2484 shell-pairs
 FoFCou: LinMIO=F DoNuc=F BraDBF=F KetDBF=F HaveP=T PDBF=F HaveZ=T HaveW=F
         NIJTC =      10 NIJTAt=       0 NIJTCD=       0 NIJTT =      10
         IJTBeg=       1 IJTEnd=      10 KLTBeg=       1 KLTEnd=      10
         IPTBeg=       1 IPTEnd=      10 IPTBCv=       1 IPTECv=      10
         IZTBeg=       1 IZTEnd=      10 IZTBCv=       1 IZTECv=      10
         IWTBeg=      11 IWTEnd=      10 IWTBCv=      11 IWTECv=      10
         INTBeg=       1 INTEnd=       0 IFTBCv=       1 IFTECv=      10
 NCel replicated for PrismC:     1
 CoulSu:  IncDef=  1024 NBBP=        3086370 NTPThr=   100 NPartT=   10 Incr=        1024 LDynOK=F.
 CoulSu:  NPrtUS=  10 ThrOK=T IAlg=1 NPAlg=1 LenDen=           0 LWGrdD=           0 DoCopy=F.
 Enter PrismC: JobTyp=22 DoJE=F Cont=F.
 PrismC:  IPart=     0 DynPar=T LinDyn=F Incr=        1024 UseFst=F UseS4=T IGathr=2.
 PrismC was handed   268351773 working-precision words and  2484 shell-pairs
 Enter PrismC: JobTyp=22 DoJE=F Cont=F.
 Enter PrismC: JobTyp=22 DoJE=F Cont=F.
 Enter PrismC: JobTyp=22 DoJE=F Cont=F.
 Enter PrismC: JobTyp=22 DoJE=F Cont=F.
 PrismC was handed   268351773 working-precision words and  2484 shell-pairs
 PrismC was handed   268351773 working-precision words and  2484 shell-pairs
 Enter PrismC: JobTyp=22 DoJE=F Cont=F.
 PrismC was handed   268351773 working-precision words and  2484 shell-pairs
 PrismC was handed   268351773 working-precision words and  2484 shell-pairs
 PrismC was handed   268351773 working-precision words and  2484 shell-pairs
 Enter PrismC: JobTyp=22 DoJE=F Cont=F.
 Enter PrismC: JobTyp=22 DoJE=F Cont=F.
 PrismC was handed   268351773 working-precision words and  2484 shell-pairs
 PrismC was handed   268351773 working-precision words and  2484 shell-pairs
 Enter PrismC: JobTyp=22 DoJE=F Cont=F.
 Enter PrismC: JobTyp=22 DoJE=F Cont=F.
 PrismC was handed   268351773 working-precision words and  2484 shell-pairs
 PrismC was handed   268351773 working-precision words and  2484 shell-pairs
 IPart=  1 NShTot=      249734 NShNF=      249734 NShFF=           0 NBatch=       10628 AvBLen=        23.5
 IPart=  3 NShTot=      264821 NShNF=      264821 NShFF=           0 NBatch=       10228 AvBLen=        25.9
 IPart=  2 NShTot=      262353 NShNF=      262353 NShFF=           0 NBatch=       10716 AvBLen=        24.5
 IPart=  6 NShTot=      266841 NShNF=      266841 NShFF=           0 NBatch=       10852 AvBLen=        24.6
 IPart=  5 NShTot=      263203 NShNF=      263203 NShFF=           0 NBatch=       11067 AvBLen=        23.8
 IPart=  7 NShTot=      266819 NShNF=      266819 NShFF=           0 NBatch=       10818 AvBLen=        24.7
 IPart=  0 NShTot=      271637 NShNF=      271637 NShFF=           0 NBatch=       10809 AvBLen=        25.1
 IPart=  9 NShTot=      273865 NShNF=      273865 NShFF=           0 NBatch=       10932 AvBLen=        25.1
 IPart=  8 NShTot=      258817 NShNF=      258817 NShFF=           0 NBatch=       10344 AvBLen=        25.0
 IPart=  4 NShTot=      256817 NShNF=      256817 NShFF=           0 NBatch=       10974 AvBLen=        23.4
 CoulSu:  NxtVal=        3287041.
 ReadGW:  IGet=0 IStart=           1 Next=           1 LGW=           0.
 Remaining memory in FofDFT     2559.91 Mw
 CkSvGd:  ISavGI=        -1 IRadAn=       5 IRASav=       5 ISavGd=        -1.
 CalDSu:  NPrtUS=  10 ThrOK=T IAlg=1 NPAlg=2 DoDPD=T LenP=       23220 LenD1P=             0.
 IPart=  0 IRanGd=          0 ScrnBf=T ScrnGd=T RCrit=4.00D+00 DoMicB=T.
 IPart=  1        18369 of        20130 points in      18 batches and      108 microbatches, Max-NSigAt=       9 Max-NSgAt2=       9
 IPart=  2        17727 of        19700 points in      19 batches and      116 microbatches, Max-NSigAt=       9 Max-NSgAt2=       9
 IPart=  5        18033 of        19624 points in      17 batches and      101 microbatches, Max-NSigAt=       9 Max-NSgAt2=       9
 IPart=  7        17093 of        18866 points in      18 batches and      117 microbatches, Max-NSigAt=       9 Max-NSgAt2=       9
 IPart=  8        18952 of        20552 points in      18 batches and      108 microbatches, Max-NSigAt=       9 Max-NSgAt2=       9
 IPart=  0        16749 of        17966 points in      16 batches and      117 microbatches, Max-NSigAt=       9 Max-NSgAt2=       9
 IPart=  3        17247 of        18584 points in      18 batches and      107 microbatches, Max-NSigAt=       9 Max-NSgAt2=       9
 IPart=  9        21164 of        23786 points in      21 batches and      114 microbatches, Max-NSigAt=       9 Max-NSgAt2=       9
 IPart=  4        17999 of        19632 points in      18 batches and       99 microbatches, Max-NSigAt=       9 Max-NSgAt2=       9
 IPart=  6        18958 of        20678 points in      18 batches and       97 microbatches, Max-NSigAt=       9 Max-NSgAt2=       9
 Polarizability after L703:
                1             2             3 
      1  0.423915D+02
      2 -0.157718D+01  0.430662D+02
      3  0.313675D-03  0.100602D-03  0.268591D+02
 Dipole Derivatives after L703:
                 1             2             3             4             5 
      1  -0.227318D+00  0.203796D+00 -0.283894D-04  0.108301D+01 -0.535791D-01
      2   0.201350D+00  0.523601D-01  0.952695D-04  0.829987D-01  0.945614D+00
      3   0.248585D-04  0.513625D-04 -0.182928D+00 -0.280669D-04 -0.547786D-04
                 6             7             8             9            10 
      1  -0.371029D-04  0.375876D-01 -0.244966D-02  0.141692D-04 -0.288351D-01
[...]
                                                                    X                                                                
                                                                    X                                                                
                                                                    X                                                                
 
 Forces in standard orientation:
 -------------------------------------------------------------------
 Center     Atomic                   Forces (Hartrees/Bohr)
 Number     Number              X              Y              Z
 -------------------------------------------------------------------
      1        6           0.000016389   -0.000022756    0.000005429
      2        6           0.000007416    0.000077515   -0.000002157
      3        1          -0.000003301    0.000002061   -0.000002645
      4        1           0.000001116   -0.000001164   -0.000000956
      5        6          -0.000008876   -0.000010521    0.000007014
      6        8          -0.000014147   -0.000049631    0.000000203
      7        1          -0.000002219   -0.000001024   -0.000003906
      8        1           0.000004421    0.000002392   -0.000000992
      9        1          -0.000000799    0.000003128   -0.000001991
 -------------------------------------------------------------------
 ***** Axes restored to original set *****
 Rotating derivatives, DoTrsp=F IDiff=-2 LEDeriv=   1348 LFDPrp=       0 LDFDPr=       0.
 -------------------------------------------------------------------
 Center     Atomic                   Forces (Hartrees/Bohr)
 Number     Number              X              Y              Z
 -------------------------------------------------------------------
      1        6          -0.000016389    0.000022756   -0.000005429
      2        6          -0.000007416   -0.000077515    0.000002157
      3        1           0.000003301   -0.000002061    0.000002645
      4        1          -0.000001116    0.000001164    0.000000956
      5        6           0.000008876    0.000010521   -0.000007014
      6        8           0.000014147    0.000049631   -0.000000203
      7        1           0.000002219    0.000001024    0.000003906
      8        1          -0.000004421   -0.000002392    0.000000992
      9        1           0.000000799   -0.000003128    0.000001991
 -------------------------------------------------------------------
 Cartesian Forces:  Max     0.000077515 RMS     0.000019123
 Z-matrix is all fixed cartesians, so copy forces.
 Force constants in Cartesian coordinates: 
                1             2             3             4             5 
      1  0.615901D+00
      2  0.582866D-01  0.623493D+00
      3  0.335274D-04  0.693606D-04  0.716282D-01
      4 -0.209651D+00  0.745785D-01  0.000000D+00  0.570797D+00
      5  0.375293D-01 -0.108828D+00 -0.100364D-04  0.859629D-01  0.790636D+00
      6 -0.806886D-05 -0.309716D-05 -0.657112D-01  0.825769D-05  0.491144D-05
      7 -0.752847D-01 -0.609547D-01 -0.126927D-04  0.133823D-01  0.166207D-01
      8 -0.571590D-01 -0.338521D+00 -0.534589D-04 -0.137987D-01 -0.102531D-01
      9 -0.110051D-04 -0.592426D-04 -0.190103D-01 -0.483170D-05  0.364796D-05
     10 -0.324616D+00 -0.875043D-01 -0.204267D-04 -0.186660D-01 -0.128975D-01
     11 -0.917361D-01 -0.876284D-01 -0.980467D-05  0.214120D-01  0.114642D-01
     12 -0.155487D-04 -0.891749D-05 -0.220730D-01  0.000000D+00  0.000000D+00
     13 -0.275822D-01 -0.442574D-02  0.000000D+00 -0.190032D+00 -0.154021D-01
     14  0.197888D-01  0.129651D-01  0.000000D+00 -0.885443D-02 -0.887180D-01
     15  0.000000D+00  0.000000D+00  0.136866D-01 -0.434270D-05  0.000000D+00
     16  0.288022D-01  0.211077D-01  0.163949D-05 -0.143899D+00 -0.104323D+00
     17  0.327069D-01 -0.995769D-01  0.383816D-05 -0.148164D+00 -0.589055D+00
     18  0.233713D-05  0.167327D-05  0.195081D-01 -0.488481D-05  0.000000D+00
     19 -0.600965D-02 -0.368536D-02  0.000000D+00 -0.217774D-01  0.297523D-01
     20 -0.195100D-02 -0.648697D-03  0.000000D+00 -0.866695D-02  0.821741D-02
     21  0.000000D+00  0.000000D+00  0.134181D-02  0.371866D-05 -0.188288D-05
     22 -0.780691D-03  0.129849D-02 -0.263570D-02 -0.819987D-04 -0.186136D-01
     23  0.126716D-02 -0.627381D-03 -0.643846D-03 -0.123719D-02 -0.672855D-02
     24  0.137227D-04  0.756675D-03  0.315155D-03 -0.128091D-02 -0.199578D-02
     25 -0.778798D-03  0.129880D-02  0.263402D-02 -0.722222D-04 -0.186292D-01
     26  0.126740D-02 -0.627484D-03  0.644186D-03 -0.123229D-02 -0.673412D-02
     27 -0.143133D-04 -0.756078D-03  0.314765D-03  0.128428D-02  0.199844D-02
                6             7             8             9            10 
      6  0.192196D+00
      7  0.381060D-05  0.641829D-01
      8 -0.429821D-05  0.626778D-01  0.353884D+00
      9  0.645538D-02  0.140866D-04  0.581796D-04  0.843942D-02
     10  0.000000D+00  0.129941D-02  0.254430D-02  0.000000D+00  0.339684D+00
     11  0.000000D+00 -0.248039D-01 -0.221081D-02 -0.137173D-05  0.943562D-01
     12  0.641699D-02 -0.432637D-05 -0.140953D-05  0.512453D-02  0.207609D-04
     13  0.000000D+00 -0.137573D-03 -0.249096D-03  0.000000D+00 -0.116347D-02
     14 -0.307640D-05 -0.810248D-03  0.781509D-03  0.000000D+00  0.463080D-02
     15 -0.816589D-01  0.000000D+00  0.000000D+00 -0.174405D-02  0.000000D+00
     16 -0.462696D-05 -0.293805D-02  0.529457D-02  0.000000D+00  0.401036D-02
     17  0.100424D-05  0.725484D-02 -0.409019D-02 -0.192130D-05 -0.486429D-03
     18 -0.592681D-01  0.000000D+00  0.000000D+00  0.929184D-03  0.000000D+00
     19 -0.974639D-05  0.439446D-03 -0.948946D-04  0.000000D+00 -0.117964D-02
     20 -0.425865D-05 -0.196921D-03  0.195035D-03  0.000000D+00 -0.481142D-03
     21 -0.748401D-03  0.000000D+00  0.000000D+00 -0.148695D-03  0.000000D+00
     22  0.275572D-01 -0.471518D-03  0.392335D-03  0.489601D-03  0.315805D-03
     23  0.785943D-02  0.106063D-03  0.106906D-03  0.865883D-04 -0.809858D-04
     24  0.115904D-02  0.104434D-03 -0.312584D-03 -0.229439D-04  0.110125D-03
     25 -0.275457D-01 -0.472217D-03  0.392698D-03 -0.489141D-03  0.316263D-03
     26 -0.785153D-02  0.106342D-03  0.107779D-03 -0.866147D-04 -0.809867D-04
     27  0.115935D-02 -0.104580D-03  0.313100D-03 -0.225165D-04 -0.110016D-03
               11            12            13            14            15 
     11  0.799353D-01
     12  0.103270D-04  0.110664D-01
     13  0.219663D-02  0.000000D+00  0.488363D+00
     14 -0.314889D-02  0.000000D+00 -0.519239D-01  0.586303D+00
     15  0.000000D+00  0.189018D-02  0.237550D-04 -0.121845D-04  0.529402D+00
     16 -0.270186D-02  0.000000D+00 -0.627111D-02 -0.479040D-01 -0.164625D-05
     17  0.116694D-02  0.000000D+00 -0.230183D-01 -0.275029D-01  0.000000D+00
     18  0.000000D+00 -0.283532D-02  0.000000D+00  0.348000D-05  0.217777D-01
     19  0.119207D-02  0.000000D+00 -0.151842D+00  0.132631D+00 -0.548100D-04
     20  0.515435D-03  0.000000D+00  0.138279D+00 -0.222393D+00  0.692699D-04
     21  0.000000D+00  0.160498D-03 -0.563591D-04  0.687932D-04 -0.484112D-01
     22  0.425457D-04 -0.888730D-04 -0.556686D-01 -0.237750D-01  0.412657D-01
     23 -0.470081D-04 -0.230530D-03 -0.227230D-01 -0.129061D+00  0.125031D+00
     24 -0.200499D-03  0.124928D-03  0.377232D-01  0.123321D+00 -0.217551D+00
     25  0.424769D-04  0.885876D-04 -0.556660D-01 -0.237828D-01 -0.412269D-01
     26 -0.467841D-04  0.230720D-03 -0.227331D-01 -0.129226D+00 -0.125086D+00
     27  0.200704D-03  0.124841D-03 -0.376907D-01 -0.123378D+00 -0.217391D+00
               16            17            18            19            20 
     16  0.123629D+00
     17  0.135997D+00  0.719903D+00
     18  0.233676D-05 -0.282836D-05  0.221042D-01
     19  0.620411D-02 -0.278449D-03  0.134890D-05  0.165691D+00
     20  0.473641D-03  0.165582D-02  0.000000D+00 -0.147030D+00  0.236771D+00
     21  0.000000D+00  0.000000D+00 -0.101463D-02  0.584228D-04 -0.747430D-04
     22 -0.476629D-02 -0.200418D-02 -0.325669D-02  0.423845D-02  0.978081D-02
     23 -0.397101D-02 -0.125108D-02 -0.147697D-02 -0.624531D-02 -0.121497D-01
     24 -0.113653D-03 -0.723006D-03 -0.600679D-03 -0.870148D-03 -0.167359D-02
     25 -0.477163D-02 -0.200767D-02  0.325595D-02  0.423582D-02  0.979267D-02
     26 -0.397342D-02 -0.125002D-02  0.147380D-02 -0.624140D-02 -0.121631D-01
     27  0.115413D-03  0.724075D-03 -0.600465D-03  0.874718D-03  0.168270D-02
               21            22            23            24            25 
     21  0.466202D-01
     22 -0.176675D-01  0.563794D-01
     23  0.203875D-01  0.287770D-01  0.138703D+00
     24  0.109299D-02 -0.406753D-01 -0.135082D+00  0.236991D+00
     25  0.176611D-01  0.835426D-03  0.410719D-02  0.498848D-02  0.563733D-01
     26 -0.203798D-01  0.410159D-02  0.110555D-01  0.159095D-01  0.287859D-01
     27  0.110741D-02 -0.498846D-02 -0.159313D-01 -0.215081D-01  0.406336D-01
               26            27 
     26  0.138884D+00
     27  0.135146D+00  0.236816D+00
 Final forces over variables, Energy=-1.92408781D+02:
 -1.63893764D-05-7.41561651D-06 3.30121233D-06-1.11591959D-06
  8.87583849D-06 1.41469679D-05 2.21860537D-06-4.42104640D-06
  7.99334769D-07 2.27560384D-05-7.75150222D-05-2.06149521D-06
  1.16369700D-06 1.05212749D-05 4.96312696D-05 1.02363508D-06
 -2.39172434D-06-3.12767308D-06-5.42943593D-06 2.15683624D-06
  2.64488747D-06 9.55553697D-07-7.01391718D-06-2.03140537D-07
  3.90618598D-06 9.91867460D-07 1.99116280D-06
 Leave Link  716 at Wed Oct 23 01:44:30 2019, MaxMem=  2684354560 cpu:         0.4
 (Enter /soft/gaussian/09-e.01/g09/l103.exe)

 GradGradGradGradGradGradGradGradGradGradGradGradGradGradGradGradGradGrad
 Berny optimization.
 Search for a local minimum.
 Step number   1 out of a maximum of    2
 All quantities printed in internal units (Hartrees-Bohrs-Radians)
 Second derivative matrix not updated -- analytic derivatives used.
 ITU=  0
     Eigenvalues ---    0.00024   0.00551   0.01203   0.02658   0.03962
     Eigenvalues ---    0.05706   0.06009   0.07248   0.09932   0.10422
     Eigenvalues ---    0.15970   0.18985   0.25784   0.25859   0.43648
     Eigenvalues ---    0.66690   0.72509   0.79999   0.88389   0.93824
     Eigenvalues ---    1.41184
 Angle between quadratic step and forces=  83.27 degrees.
 Linear search not attempted -- first point.
 B after Tr=     0.000003   -0.000034   -0.000053
         Rot=    1.000000    0.000016   -0.000002    0.000002 Ang=   0.00 deg.
 Variable       Old X    -DE/DX   Delta X   Delta X   Delta X     New X
                                 (Linear)    (Quad)   (Total)
    X1        2.13757  -0.00002   0.00000   0.00001   0.00001   2.13758
    Y1       -1.63975   0.00002   0.00000   0.00004  -0.00000  -1.63975
    Z1        0.00003  -0.00001   0.00000   0.00005   0.00004   0.00008
    X2        0.15634  -0.00001   0.00000  -0.00002  -0.00002   0.15632
    Y2        0.23537  -0.00008   0.00000  -0.00017  -0.00020   0.23517
    Z2       -0.00002   0.00000   0.00000  -0.00002  -0.00008  -0.00010
    X3        1.72948   0.00000   0.00000   0.00028   0.00027   1.72975
    Y3       -3.63823  -0.00000   0.00000  -0.00002  -0.00006  -3.63829
    Z3       -0.00032   0.00000   0.00000   0.00053   0.00059   0.00027
    X4        4.07437  -0.00000   0.00000  -0.00006  -0.00006   4.07431
    Y4       -1.00613   0.00000   0.00000   0.00026   0.00021  -1.00592
    Z4        0.00015   0.00000   0.00000  -0.00010  -0.00014   0.00002
    X5       -2.55066   0.00001   0.00000  -0.00003  -0.00003  -2.55069
    Y5       -0.68636   0.00001   0.00000   0.00003   0.00000  -0.68636
    Z5        0.00002  -0.00001   0.00000  -0.00001  -0.00003  -0.00001
    X6        0.67263   0.00001   0.00000   0.00003   0.00005   0.67267
    Y6        2.49648   0.00005   0.00000  -0.00008  -0.00012   2.49636
    Z6       -0.00002  -0.00000   0.00000  -0.00015  -0.00029  -0.00031
    X7       -3.82128   0.00000   0.00000   0.00014   0.00015  -3.82113
    Y7        0.92255   0.00000   0.00000   0.00016   0.00014   0.92269
    Z7       -0.00063   0.00000   0.00000   0.00054   0.00047  -0.00016
    X8       -2.91165  -0.00000   0.00000  -0.00010  -0.00010  -2.91174
    Y8       -1.85224  -0.00000   0.00000  -0.00041  -0.00038  -1.85262
    Z8        1.65957   0.00000   0.00000  -0.00032  -0.00030   1.65927
    X9       -2.91148   0.00000   0.00000  -0.00025  -0.00026  -2.91174
    Y9       -1.85334  -0.00000   0.00000   0.00049   0.00041  -1.85293
    Z9       -1.65881   0.00000   0.00000  -0.00029  -0.00027  -1.65907
         Item               Value     Threshold  Converged?
 Maximum Force            0.000078     0.000450     YES
 RMS     Force            0.000019     0.000300     YES
 Maximum Displacement     0.000587     0.001800     YES
 RMS     Displacement     0.000232     0.001200     YES
 Predicted change in Energy=-7.126042D-09
 Optimization completed.
    -- Stationary point found.
 GradGradGradGradGradGradGradGradGradGradGradGradGradGradGradGradGradGrad

 Leave Link  103 at Wed Oct 23 01:44:30 2019, MaxMem=  2684354560 cpu:         0.2
 (Enter /soft/gaussian/09-e.01/g09/l9999.exe)

 Test job not archived.
 1\1\GINC-B435\Freq\UB2PLYPD3-FC\CC-pVTZ\C3H5O1(2)\SJKLIPP\23-Oct-2019\
 0\\#P b2plypd3/cc-pvtz # SCF=(xqc) # Freq=() # IOp(7/33=1) # int=ultra
 fine\\comment:\\0,2\C,1.131155,-0.867719,0.000018\C,0.082732,0.124554,
 -0.000011\H,0.915204,-1.925269,-0.000169\H,2.156064,-0.532423,0.000082
 \C,-1.349751,-0.363207,0.00001\O,0.35594,1.32108,-0.000011\H,-2.022135
 ,0.488191,-0.000334\H,-1.540777,-0.980161,0.878209\H,-1.540689,-0.9807
 45,-0.877802\\Version=ES64L-G09RevE.01\State=2-A\HF=-192.1799144\MP2=-
 192.4087814\S2=0.791035\S2-1=0.\S2A=0.750406\RMSD=8.444e-09\RMSF=1.912
 e-05\ZeroPoint=0.0707774\Thermal=0.0758243\Dipole=-0.1703052,-1.176026
 7,-0.0000015\DipoleDeriv=-0.227318,0.2013498,0.0000249,0.2037961,0.052
 3604,0.0000514,-0.0000284,0.0000953,-0.182928,1.0830109,0.0829989,-0.0
 000281,-0.053579,0.9456144,-0.0000548,-0.0000371,-0.0000171,0.1497706,
 0.0375877,-0.046927,-0.0000163,-0.0024496,-0.0504935,-0.0000164,0.0000
 142,-0.0000606,0.1165384,-0.0288351,0.0087713,-0.0000097,-0.0359234,0.
 035098,-0.0000105,0.0000058,-0.0000189,0.1296512,-0.3196399,-0.1570541
 ,0.0000291,-0.1447866,-0.0192579,0.0000306,0.0001005,0.0000583,0.09786
 4,-0.5946094,-0.1053493,0.000009,-0.0413646,-1.0124673,0.0000216,0.000
 0131,-0.0000072,-0.3270391,-0.0063773,0.0235455,-0.0000138,0.0889052,-
 0.0226574,0.000036,-0.0000497,0.0000255,0.0749767,0.0280862,-0.0036766
 ,-0.0157572,-0.0072913,0.035965,0.0757215,0.0298572,0.0846267,-0.02945
 57,0.0280949,-0.0036585,0.0157621,-0.0073069,0.0358383,-0.0757794,-0.0
 298756,-0.084702,-0.029378\Polar=42.3915147,-1.5771837,43.0661967,0.00
 03137,0.0001006,26.8591321\PG=C01 [X(C3H5O1)]\NImag=0\\0.61590146,0.05
 828661,0.62349337,0.00003353,0.00006936,0.07162819,-0.20965124,0.07457
 848,-0.00000060,0.57079710,0.03752927,-0.10882833,-0.00001004,0.085962
 88,0.79063555,-0.00000807,-0.00000310,-0.06571124,0.00000826,0.0000049
 1,0.19219591,-0.07528472,-0.06095467,-0.00001269,0.01338230,0.01662068
 ,0.00000381,0.06418293,-0.05715901,-0.33852129,-0.00005346,-0.01379873
 ,-0.01025306,-0.00000430,0.06267783,0.35388413,-0.00001101,-0.00005924
 ,-0.01901030,-0.00000483,0.00000365,0.00645538,0.00001409,0.00005818,0
 .00843942,-0.32461629,-0.08750428,-0.00002043,-0.01866595,-0.01289745,
 -0.00000086,0.00129941,0.00254430,0.00000065,0.33968351,-0.09173612,-0
 .08762843,-0.00000980,0.02141198,0.01146424,0.00000092,-0.02480391,-0.
 00221081,-0.00000137,0.09435618,0.07993530,-0.00001555,-0.00000892,-0.
 02207303,-0.00000068,0.00000024,0.00641699,-0.00000433,-0.00000141,0.0
 0512453,0.00002076,0.00001033,0.01106638,-0.02758224,-0.00442574,0.000
 00007,-0.19003167,-0.01540212,-0.00000026,-0.00013757,-0.00024910,0.00
 000026,-0.00116347,0.00219663,-0.00000009,0.48836257,0.01978876,0.0129
 6511,-0.00000070,-0.00885443,-0.08871796,-0.00000308,-0.00081025,0.000
 78151,0.00000067,0.00463080,-0.00314889,-0.00000033,-0.05192389,0.5863
 0318,-0.00000099,-0.00000084,0.01368657,-0.00000434,-0.00000005,-0.081
 65891,0.00000003,-0.00000026,-0.00174405,-0.00000082,-0.00000014,0.001
 89018,0.00002376,-0.00001218,0.52940209,0.02880216,0.02110767,0.000001
 64,-0.14389894,-0.10432268,-0.00000463,-0.00293805,0.00529457,0.000000
 61,0.00401036,-0.00270186,-0.00000011,-0.00627111,-0.04790396,-0.00000
 165,0.12362938,0.03270691,-0.09957687,0.00000384,-0.14816375,-0.589055
 18,0.00000100,0.00725484,-0.00409019,-0.00000192,-0.00048643,0.0011669
 4,-0.00000015,-0.02301832,-0.02750286,-0.00000035,0.13599705,0.7199034
 4,0.00000234,0.00000167,0.01950808,-0.00000488,0.00000051,-0.05926813,
 -0.00000075,0.00000044,0.00092918,0.00000027,-0.00000016,-0.00283532,0
 .00000008,0.00000348,0.02177775,0.00000234,-0.00000283,0.02210422,-0.0
 0600965,-0.00368536,0.00000016,-0.02177738,0.02975230,-0.00000975,0.00
 043945,-0.00009489,-0.00000024,-0.00117964,0.00119207,0.00000029,-0.15
 184196,0.13263078,-0.00005481,0.00620411,-0.00027845,0.00000135,0.1656
 9081,-0.00195100,-0.00064870,0.00000046,-0.00866695,0.00821741,-0.0000
 0426,-0.00019692,0.00019504,0.00000006,-0.00048114,0.00051544,0.000000
 05,0.13827863,-0.22239309,0.00006927,0.00047364,0.00165582,0.00000005,
 -0.14702975,0.23677093,0.00000034,0.00000046,0.00134181,0.00000372,-0.
 00000188,-0.00074840,-0.00000002,0.00000029,-0.00014869,0.00000031,0.0
 0000003,0.00016050,-0.00005636,0.00006879,-0.04841118,0.00000004,-0.00
 000066,-0.00101463,0.00005842,-0.00007474,0.04662020,-0.00078069,0.001
 29849,-0.00263570,-0.00008200,-0.01861363,0.02755720,-0.00047152,0.000
 39234,0.00048960,0.00031580,0.00004255,-0.00008887,-0.05566860,-0.0237
 7500,0.04126570,-0.00476629,-0.00200418,-0.00325669,0.00423845,0.00978
 081,-0.01766753,0.05637942,0.00126716,-0.00062738,-0.00064385,-0.00123
 719,-0.00672855,0.00785943,0.00010606,0.00010691,0.00008659,-0.0000809
 9,-0.00004701,-0.00023053,-0.02272297,-0.12906134,0.12503066,-0.003971
 01,-0.00125108,-0.00147697,-0.00624531,-0.01214975,0.02038752,0.028777
 04,0.13870266,0.00001372,0.00075667,0.00031515,-0.00128091,-0.00199578
 ,0.00115904,0.00010443,-0.00031258,-0.00002294,0.00011012,-0.00020050,
 0.00012493,0.03772321,0.12332089,-0.21755137,-0.00011365,-0.00072301,-
 0.00060068,-0.00087015,-0.00167359,0.00109299,-0.04067526,-0.13508157,
 0.23699096,-0.00077880,0.00129880,0.00263402,-0.00007222,-0.01862924,-
 0.02754571,-0.00047222,0.00039270,-0.00048914,0.00031626,0.00004248,0.
 00008859,-0.05566596,-0.02378283,-0.04122688,-0.00477163,-0.00200767,0
 .00325595,0.00423582,0.00979267,0.01766107,0.00083543,0.00410719,0.004
 98848,0.05637332,0.00126740,-0.00062748,0.00064419,-0.00123229,-0.0067
 3412,-0.00785153,0.00010634,0.00010778,-0.00008661,-0.00008099,-0.0000
 4678,0.00023072,-0.02273313,-0.12922566,-0.12508611,-0.00397342,-0.001
 25002,0.00147380,-0.00624140,-0.01216310,-0.02037981,0.00410159,0.0110
 5554,0.01590947,0.02878590,0.13888385,-0.00001431,-0.00075608,0.000314
 76,0.00128428,0.00199844,0.00115935,-0.00010458,0.00031310,-0.00002252
 ,-0.00011002,0.00020070,0.00012484,-0.03769066,-0.12337754,-0.21739109
 ,0.00011541,0.00072407,-0.00060046,0.00087472,0.00168270,0.00110741,-0
 .00498846,-0.01593129,-0.02150809,0.04063362,0.13514589,0.23681580\\0.
 00001639,-0.00002276,0.00000543,0.00000742,0.00007752,-0.00000216,-0.0
 0000330,0.00000206,-0.00000264,0.00000112,-0.00000116,-0.00000096,-0.0
 0000888,-0.00001052,0.00000701,-0.00001415,-0.00004963,0.00000020,-0.0
 0000222,-0.00000102,-0.00000391,0.00000442,0.00000239,-0.00000099,-0.0
 0000080,0.00000313,-0.00000199\\\@


 THE ... SCIENTISTS WERE WRONG ... THE MOST PERSISTENT PRINCIPLES 
 OF THE UNIVERSE WERE ACCIDENT AND ERROR.

                          -- FRANK HERBERT IN DUNE
 Job cpu time:       0 days  3 hours 10 minutes 23.7 seconds.
 File lengths (MBytes):  RWF=   9599 Int=      0 D2E=      0 Chk=      5 Scr=      1
 Normal termination of Gaussian 09 at Wed Oct 23 01:44:31 2019.
