
 Primary working directories    : /scratch/kmoore
 Secondary working directories  : /scratch/kmoore
 Wavefunction directory         : /scratch/kmoore/
 Main file repository           : /scratch/kmoore/

 SHA1      : f86d681fdec979508940bfbbc93fd7db66630888
 NAME      : 2015.1.24
 ARCHNAME  : linux/x86_64
 FC        : /blues/gpfs/home/software/spack-0.10.1/opt/spack/linux-centos7-x86_64/intel-17.0.4/intel-mpi-2017.3-dfphq6kavje2olnichisvjjndtridrok/compilers_and_libraries_2017.4.196/linux/mpi/intel64/bin/mpiifort
 BLASLIB   : -L/blues/gpfs/home/software/spack-0.10.1/opt/spack/linux-centos7-x86_64/intel-17.0.4/intel-mkl-2017.3.196-jyjmyutcol3veyt4bazftyqkxxzmfd7o/pkg/compilers_and_libraries_2017.4.196/linux/mkl/lib/intel64 -lmkl_intel_ilp64 -lmkl_intel_thread -lmkl_core
 id        : anlgov

 Nodes     nprocs
 b460         3
 Number of processes for MPI-2 version of Molpro:   nprocs(total)=    4   nprocs(compute)=    3   nprocs(helper)=    1

 Using customized tuning parameters: mindgm=7; mindgv=16; mindgc=1; mindgr=1; noblas=0; minvec=7
 default implementation of scratch files=sf  

 ***,
 memory,128,m
 geometry = {
 O       -0.1754163722      1.4931872597     -0.0122512951
 H        0.8139099931      1.5306024714      0.0086495548
 H       -0.4647819808      2.3199652702      0.4496026501
 }
 set,spin=0
 set,charge=0
 basis=6-31g
 {rhf,}
 {mrcc,method=ccsdt(q),}
 
 molpro_energy=energy
 show[1,e25.15],molpro_energy
 status,all,crash
 

 Variables initialized (889), CPU time= 0.01 sec
 Commands  initialized (702), CPU time= 0.01 sec, 572 directives.
 Default parameters read. Elapsed time= 0.08 sec

 Checking input...
 Passed
1


                                         ***  PROGRAM SYSTEM MOLPRO  ***
                                       Copyright, TTI GmbH Stuttgart, 2015
                                    Version 2015.1 linked Sep 21 2017 09:51:13


 **********************************************************************************************************************************
 LABEL *                                                                                 
  64 bit mpp version                                                                     DATE: 23-Sep-19          TIME: 12:53:59  
 **********************************************************************************************************************************

 SHA1:             f86d681fdec979508940bfbbc93fd7db66630888
 **********************************************************************************************************************************

Geometry recognized as XYZ

 SETTING SPIN           =     0.00000000D+00                                  
 SETTING CHARGE         =     0.00000000D+00                                  

 Variable memory set to  128000000 words,  buffer space   230000 words

 SETTING BASIS          =    6-31G


 Recomputing integrals since basis changed


 Using spherical harmonics

 Library entry O      S 6-31G                selected for orbital group  1
 Library entry O      P 6-31G                selected for orbital group  1
 Library entry H      S 6-31G                selected for orbital group  2


 PROGRAM * SEWARD (Integral evaluation for generally contracted gaussian basis sets)     Author: Roland Lindh, 1990

 Geometry written to block  1 of record 700


 Point group  C1  



 ATOMIC COORDINATES

 NR  ATOM    CHARGE       X              Y              Z

   1  O       8.00   -0.331488901    2.821714974   -0.023151592
   2  H       1.00    1.538066977    2.892419477    0.016345290
   3  H       1.00   -0.878310651    4.384098979    0.849625874

 Bond lengths in Bohr (Angstrom)

 1-2  1.871309251  1-3  1.871309251
     ( 0.990254210)     ( 0.990254210)

 Bond angles

  2-1-3  104.51003837

 NUCLEAR CHARGE:                   10
 NUMBER OF PRIMITIVE AOS:          30
 NUMBER OF SYMMETRY AOS:           30
 NUMBER OF CONTRACTIONS:           13   (  13A   )
 NUMBER OF CORE ORBITALS:           1   (   1A   )
 NUMBER OF VALENCE ORBITALS:        6   (   6A   )


 NUCLEAR REPULSION ENERGY    8.88806408

 Eigenvalues of metric

         1 0.725E-01 0.128E+00 0.328E+00 0.330E+00 0.423E+00 0.498E+00 0.696E+00 0.762E+00


 Contracted 2-electron integrals neglected if value below      1.0D-11
 AO integral compression algorithm  1   Integral accuracy      1.0D-11

     0.786 MB (compressed) written to integral file (100.0%)

     Node minimum: 0.262 MB, node maximum: 0.262 MB


 NUMBER OF SORTED TWO-ELECTRON INTEGRALS:       1395.     BUFFER LENGTH:  32768
 NUMBER OF SEGMENTS:   1  SEGMENT LENGTH:       1395      RECORD LENGTH: 524288

 Memory used in sort:       0.56 MW

 SORT1 READ        6781. AND WROTE        1142. INTEGRALS IN      1 RECORDS. CPU TIME:     0.00 SEC, REAL TIME:     0.00 SEC
 SORT2 READ        3364. AND WROTE        4186. INTEGRALS IN      3 RECORDS. CPU TIME:     0.00 SEC, REAL TIME:     0.00 SEC

 Node minimum:        1365.  Node maximum:        1426. integrals

 OPERATOR DM      FOR CENTER  0  COORDINATES:    0.000000    0.000000    0.000000


 **********************************************************************************************************************************
 DATASETS  * FILE   NREC   LENGTH (MB)   RECORD NAMES
              1      18       19.10       500      610      700      900      950      970     1000      129      960     1100   
                                          VAR    BASINP    GEOM    SYMINP    ZMAT    AOBASIS   BASIS     P2S    ABASIS      S 
                                         1400     1410     1200     1210     1080     1600     1650     1700   
                                           T        V       H0       H01     AOSYM     SMH    MOLCAS    OPER   

 PROGRAMS   *        TOTAL       INT
 CPU TIMES  *         0.19      0.06
 REAL TIME  *         0.31 SEC
 DISK USED  *        12.61 MB      
 GA USED    *         0.00 MB       (max)       0.00 MB       (current)
 **********************************************************************************************************************************


 PROGRAM * RHF-SCF (CLOSED SHELL)       Authors: W. Meyer, H.-J. Werner


 NUMBER OF ELECTRONS:       5+    5-    SPACE SYMMETRY=1    SPIN SYMMETRY: Singlet 
 CONVERGENCE THRESHOLDS:    1.00E-05 (Density)    1.00E-07 (Energy)
 MAX. NUMBER OF ITERATIONS:       60
 INTERPOLATION TYPE:            DIIS
 INTERPOLATION STEPS:              2 (START)      1 (STEP)
 LEVEL SHIFTS:                  0.00 (CLOSED)  0.00 (OPEN) 



 Orbital guess generated from atomic densities. Full valence occupancy:    5

 Molecular orbital dump at record        2100.2

 Initial occupancy:   5

 ITERATION    DDIFF          GRAD             ENERGY        2-EL.EN.            DIPOLE MOMENTS         DIIS   ORB.
    1      0.000D+00      0.000D+00       -75.93959729     77.379345    0.79465    0.98110    0.54806    0    start
    2      0.000D+00      0.332D-01       -75.97108091     73.717177    0.58731    0.72511    0.40506    1    diag
    3      0.400D-01      0.192D-01       -75.98132644     75.191486    0.61951    0.76487    0.42727    2    diag
    4      0.145D-01      0.184D-02       -75.98156218     75.118837    0.60244    0.74379    0.41549    3    diag
    5      0.247D-02      0.361D-03       -75.98157162     75.124104    0.60039    0.74126    0.41408    4    diag
    6      0.575D-03      0.448D-04       -75.98157180     75.123720    0.60003    0.74081    0.41383    5    diag
    7      0.845D-04      0.444D-05       -75.98157180     75.123685    0.60001    0.74079    0.41382    6    diag
    8      0.688D-05      0.755D-06       -75.98157180     75.123667    0.60001    0.74079    0.41382    0    orth

 Final occupancy:   5

 !RHF STATE 1.1 Energy                -75.981571797753
 Nuclear energy                         8.88806408
 One-electron energy                 -122.43146916
 Two-electron energy                   37.56183328
 Virial quotient                       -1.00146567
 !RHF STATE 1.1 Dipole moment           0.60001086     0.74079198     0.41382051
 Dipole moment /Debye                   1.52497559     1.88278209     1.05175794

 Orbital energies:

         1.1          2.1          3.1          4.1          5.1          6.1          7.1
    -20.566958    -1.339419    -0.692073    -0.555734    -0.499717     0.195846     0.290488

 HOMO      5.1    -0.499717 =     -13.5980eV
 LUMO      6.1     0.195846 =       5.3292eV
 LUMO-HOMO         0.695563 =      18.9272eV


 **********************************************************************************************************************************
 DATASETS  * FILE   NREC   LENGTH (MB)   RECORD NAMES
              1      18       19.10       500      610      700      900      950      970     1000      129      960     1100   
                                          VAR    BASINP    GEOM    SYMINP    ZMAT    AOBASIS   BASIS     P2S    ABASIS      S 
                                         1400     1410     1200     1210     1080     1600     1650     1700   
                                           T        V       H0       H01     AOSYM     SMH    MOLCAS    OPER   

              2       4        2.78       700     1000      520     2100   
                                         GEOM     BASIS   MCVARS     RHF  

 PROGRAMS   *        TOTAL       RHF       INT
 CPU TIMES  *         0.24      0.05      0.06
 REAL TIME  *         0.48 SEC
 DISK USED  *        78.38 MB      
 SF USED    *         0.00 MB      
 GA USED    *         0.00 MB       (max)       0.00 MB       (current)
 **********************************************************************************************************************************


 PROGRAM * MRCC (General Multireference Coupled Cluster)    Author: M. Kallay, 2000-2005

 ***  Initialisation ***
 
 Molecular orbitals read from record     2100.2  Type=RHF/CANONICAL (state 1.1)
 
 Frozen orbitals:              1 (  1  0  0  0  0  0  0  0)
 Active orbitals:             12 ( 12  0  0  0  0  0  0  0)
 Active electrons:             8
 Spin quantum number:          0.0

 Transformed integrals will be written to file mrcc_61597/fort.55

 Load integrals                0.3 sec
 Transform integrals           0.3 sec
 Storage for integrals:           6384
 Remaining memory:           127993059

 Core energy:             -52.35057790
 
 MRCC Input:
     4     1     0     0     3     0     0     1     0     1     1     1     0     0     0     7     0     0   0.000     0    1024
  ex.lev,nsing,ntrip, rest,method,dens,conver,symm, diag, CS ,spatial, HF, ndoub,nacto,nactv, tol, maxex, sacc, freq,  dboc,   mem
  2  2  2  2  0  0  0  0  0  0  0  0
 MRCC Input end
 Variable memory released
 MRCC now being run, temporary output in /scratch/kmoore/mrcc_61597/mrcc.out
 **********************************************************************
                          MRCC program system
 **********************************************************************

                              Written by
  Mihaly Kallay, Zoltan Rolik, Jozsef Csontos, Peter Nagy, Gyula Samu,
      David Mester, Jozsef Csoka, Bernat Szabo, Istvan Ladjanszki,
       Lorant Szegedy, Bence Ladoczki, Klara Petrov, Mate Farkas,
                    Pal D. Mezei, and Bence Hegely

        Department of Physical Chemistry and Materials Science
            Budapest University of Technology and Economics
                  Budapest P.O.Box 91, H-1521 Hungary

                              www.mrcc.hu

                       Release date: May 23, 2018

 ************************ 2019-09-23 12:54:00 *************************
 Executing goldstone...

 Generation of CC equations in terms of H and T...
 Generation of antisymmetrized Goldstone diagrams...
 Number of diagrams in T^1 equations:    15
 Number of diagrams in T^2 equations:    38
 Number of diagrams in T^3 equations:    49
 Number of diagrams in T^4 equations:     5
 Translation of diagrams to factorized equations...
 Optimizing intermediate calculation...
 Number of floating-point operations per iteration step:   2.0403E+08
 Probable CPU time per iteration step (hours):      0.00
 Required memory (Mbytes):       1.5
 Number of intermediates:                                  80
 Number of intermediates to be stored:                     30
 Length of intermediate file (Mbytes):       1.0

 ************************ 2019-09-23 12:54:00 *************************
 Executing xmrcc...

 **********************************************************************
 CC(3)(4) calculation


 Allocation of 100.0 Mbytes of memory...
 Number of spinorbitals:                    24
 Number of alpha electrons:                        4
 Number of beta electrons:                         4
 Spin multiplicity:                     1
 z-component of spin:  0.0
 Spatial symmetry:                      1
 Convergence criterion:  1.0E-07
 Construction of occupation graphs...
 Number of                     0 -fold excitations:                      1
 Number of                     1 -fold excitations:                     64
 Number of                     2 -fold excitations:                   1360
 Number of                     3 -fold excitations:                  11200
 Total number of configurations:                  12625
 Calculation of coupling coefficients...
 Length of intermediate file (Mbytes):       0.9

 ======================================================================

 Spin case  1   Alpha:  0   Beta:  4
 Number of excitations:                     70
 Spin case  2   Alpha:  1   Beta:  3
 Number of excitations:                   7168
 Spin case  3   Alpha:  2   Beta:  2
 Number of excitations:                  28224
 Number of                     4 -fold excitations:                  42700

 Memory requirements /Mbyte/:
               Minimal        Optimal
 Real*8:          0.4172         0.4172
 Integer:         0.2424
 Total:           0.6596         0.6596


 ************************ 2019-09-23 12:54:00 *************************
 Executing mrcc...

 **********************************************************************
 CCSDT(Q) calculation


 OpenMP parallel version is running.
 Number of CPUs:   1
 Allocation of    0.4 Mbytes of memory...
 Number of spinorbitals:  24
 Number of alpha electrons:  4
 Number of beta  electrons:  4
 Spin multiplicity: 1
 z-component of spin:  0.0
 Spatial symmetry: 1
 Convergence criterion:  1.0E-07
 Construction of occupation graphs...
 Number of 0-fold excitations: 1
 Number of 1-fold excitations: 64
 Number of 2-fold excitations: 1360
 Number of 3-fold excitations: 11200
 Total number of determinants: 12625
 Calculation of coupling coefficients...
 Initial cluster amplitudes are generated.
 Length of intermediate file (Mbytes):       0.9
 Reading integral list from unit 55...
 Sorting integrals...
 Energy of reference determinant [au]:     -75.981571797753
 Calculation of MP denominators...

 Starting CC iteration...
 ======================================================================
 Norm of residual vector:     0.67664638
 CPU time [min]:     0.001                   Wall time [min]:     0.001

 Iteration  1  CC energy:   -76.11236884  Energy decrease:   0.13079704
 ======================================================================
 Norm of residual vector:     0.12262860
 CPU time [min]:     0.003                   Wall time [min]:     0.003

 Iteration  2  CC energy:   -76.11442115  Energy decrease:   0.00205231
 ======================================================================
 Norm of residual vector:     0.04059448
 CPU time [min]:     0.004                   Wall time [min]:     0.004

 Iteration  3  CC energy:   -76.11942522  Energy decrease:   0.00500407
 ======================================================================
 Norm of residual vector:     0.01087179
 CPU time [min]:     0.005                   Wall time [min]:     0.005

 Iteration  4  CC energy:   -76.12029704  Energy decrease:   0.00087182
 ======================================================================
 Norm of residual vector:     0.00299763
 CPU time [min]:     0.006                   Wall time [min]:     0.006

 Iteration  5  CC energy:   -76.12033340  Energy decrease:   0.00003636
 ======================================================================
 Norm of residual vector:     0.00082202
 CPU time [min]:     0.007                   Wall time [min]:     0.007

 Iteration  6  CC energy:   -76.12032411  Energy decrease:   0.00000930
 ======================================================================
 Norm of residual vector:     0.00027715
 CPU time [min]:     0.008                   Wall time [min]:     0.008

 Iteration  7  CC energy:   -76.12032253  Energy decrease:   0.00000158
 ======================================================================
 Norm of residual vector:     0.00008542
 CPU time [min]:     0.009                   Wall time [min]:     0.009

 Iteration  8  CC energy:   -76.12032191  Energy decrease:   0.00000062
 ======================================================================
 Norm of residual vector:     0.00002392
 CPU time [min]:     0.010                   Wall time [min]:     0.010

 Iteration  9  CC energy:   -76.12032201  Energy decrease:   0.00000010
 ======================================================================
 Norm of residual vector:     0.00000567
 CPU time [min]:     0.011                   Wall time [min]:     0.011

 Iteration 10  CC energy:   -76.12032193  Energy decrease:   0.00000008
 ======================================================================
 Norm of residual vector:     0.00000171
 CPU time [min]:     0.012                   Wall time [min]:     0.012

 Iteration 11  CC energy:   -76.12032192  Energy decrease:   0.00000001
 ======================================================================
 Norm of residual vector:     0.00000053
 CPU time [min]:     0.013                   Wall time [min]:     0.013

 Iteration 12  CC energy:   -76.12032192  Energy decrease:   9.0249E-10
 ======================================================================
 Norm of residual vector:     0.00000013
 CPU time [min]:     0.014                   Wall time [min]:     0.014

 Iteration 13  CC energy:   -76.12032192  Energy decrease:   1.6892E-09
 ======================================================================
 Norm of residual vector:     0.00000004
 CPU time [min]:     0.015                   Wall time [min]:     0.015

 Iteration 14  CC energy:   -76.12032192  Energy decrease:   7.4536E-11
 ======================================================================

 Iteration has converged in 14 steps.

 Final results:
 Total CCSDT energy [au]:            -76.120321915151
 Total MP2 energy [au]:              -76.112368836605

 Perturbative corrections are calculated...
 ======================================================================
 Spin case  1   Alpha:  0   Beta:  4
 Number of excitations:        70
 CPU time [min]:     0.016                   Wall time [min]:     0.016
 ======================================================================
 Spin case  2   Alpha:  1   Beta:  3
 Number of excitations:        7168
 CPU time [min]:     0.016                   Wall time [min]:     0.016
 ======================================================================
 Spin case  3   Alpha:  2   Beta:  2
 Number of excitations:        28224
 CPU time [min]:     0.018                   Wall time [min]:     0.018
 ======================================================================
 Number of 4-fold excitations: 42700
 CPU time [min]:     0.018                   Wall time [min]:     0.018

 Total CCSDT[Q] energy [au]:         -76.120806629365
 Total CCSDT(Q) energy [au]:         -76.120814761061

 ************************ 2019-09-23 12:54:01 *************************
                      Normal termination of mrcc.
 **********************************************************************
 !CCSDT STATE 1.1 Energy              -76.120321915151
 !MP2 STATE 1.1 Energy                -76.112368836605
 !CCSDT[Q] STATE 1.1 Energy           -76.120806629365
 !CCSDT(Q) STATE 1.1 Energy           -76.120814761061
 
 CPU-time for MRCC:              1.1 sec
 Elapsed-time for MRCC:          1.3 sec

 Variable memory set to  128000000 words,  buffer space   230000 words



 **********************************************************************************************************************************
 DATASETS  * FILE   NREC   LENGTH (MB)   RECORD NAMES
              1      18       19.10       500      610      700      900      950      970     1000      129      960     1100   
                                          VAR    BASINP    GEOM    SYMINP    ZMAT    AOBASIS   BASIS     P2S    ABASIS      S 
                                         1400     1410     1200     1210     1080     1600     1650     1700   
                                           T        V       H0       H01     AOSYM     SMH    MOLCAS    OPER   

              2       4        2.78       700     1000      520     2100   
                                         GEOM     BASIS   MCVARS     RHF  

 PROGRAMS   *        TOTAL      MRCC       RHF       INT
 CPU TIMES  *         1.33      1.09      0.05      0.06
 REAL TIME  *         1.83 SEC
 DISK USED  *        78.38 MB      
 SF USED    *         0.00 MB      
 GA USED    *         0.00 MB       (max)       0.00 MB       (current)
 **********************************************************************************************************************************
 SETTING MOLPRO_ENERGY  =       -76.12081476  AU                              
 MOLPRO_ENERGY    =       -0.761208147610610E+02 AU
 
 STEP  1 RHF-SCF        O.K.    
 STEP  2 MRCC           O.K.    

 CCSDT(Q)/6-31G energy=    -76.120814761061

        CCSDT(Q)        RHF-SCF 
    -76.12081476    -75.98157180
 **********************************************************************************************************************************
 Molpro calculation terminated
 Variable memory released
